
     Program PHONON v.6.7MaX starts on 28May2026 at 19:34:56 

     This program is part of the open-source Quantum ESPRESSO suite
     for quantum simulation of materials; please cite
         "P. Giannozzi et al., J. Phys.:Condens. Matter 21 395502 (2009);
         "P. Giannozzi et al., J. Phys.:Condens. Matter 29 465901 (2017);
          URL http://www.quantum-espresso.org", 
     in publications or presentations arising from this work. More details at
     http://www.quantum-espresso.org/quote

     Parallel version (MPI), running on     8 processors

     MPI processes distributed on     1 nodes
     R & G space division:  proc/nbgrp/npool/nimage =       8
     Reading input from ph.in
     Message from routine ph_restart_set_filename :
     cannot open file for reading or writing
     Message from routine ph_restart_set_filename :
     cannot open file for reading or writing
     Run is not recoverable starting from scratch

     Reading xml data from directory:

     ./out/caauh3.save/
     file Ca.pbe-spn-rrkjus_psl.1.0.0.UPF: wavefunction(s)  3S renormalized

     IMPORTANT: XC functional enforced from input :
     Exchange-correlation= PBE
                           (   1   4   3   4   0   0   0)
     Any further DFT definition will be discarded
     Please, verify this is what you really want


     Parallelization info
     --------------------
     sticks:   dense  smooth     PW     G-vecs:    dense   smooth      PW
     Min         298     150     43                10923     3878     617
     Max         299     151     44                10924     3881     620
     Sum        2385    1201    349                87391    31031    4945

     Reading collected, re-writing distributed wavefunctions


     Dynamical matrices for ( 4, 4, 4)  uniform grid of q-points
     (  10 q-points):
       N         xq(1)         xq(2)         xq(3) 
       1   0.000000000   0.000000000   0.000000000
       2   0.000000000   0.000000000   0.250000000
       3   0.000000000   0.000000000  -0.500000000
       4   0.000000000   0.250000000   0.250000000
       5   0.000000000   0.250000000  -0.500000000
       6   0.000000000  -0.500000000  -0.500000000
       7   0.250000000   0.250000000   0.250000000
       8   0.250000000   0.250000000  -0.500000000
       9   0.250000000  -0.500000000  -0.500000000
      10  -0.500000000  -0.500000000  -0.500000000

     Saving dvscf to file. Distribute only q points, not irreducible represetations.

     Calculation of q =    0.0000000   0.0000000   0.0000000

     CaAuH3 phonon + electron-phonon 4x4x4 q (RTSC A11 · SrAuH3 Ca-variant · p

     bravais-lattice index     =            1
     lattice parameter (alat)  =       6.8361  a.u.
     unit-cell volume          =     319.4664 (a.u.)^3
     number of atoms/cell      =            5
     number of atomic types    =            3
     kinetic-energy cut-off    =      80.0000  Ry
     charge density cut-off    =     640.0000  Ry
     convergence threshold     =      1.0E-14
     beta                      =       0.7000
     number of iterations used =            4
     Exchange-correlation= PBE
                           (   1   4   3   4   0   0   0)


     celldm(1)=    6.83610  celldm(2)=    0.00000  celldm(3)=    0.00000
     celldm(4)=    0.00000  celldm(5)=    0.00000  celldm(6)=    0.00000

     crystal axes: (cart. coord. in units of alat)
               a(1) = (  1.0000  0.0000  0.0000 )  
               a(2) = (  0.0000  1.0000  0.0000 )  
               a(3) = (  0.0000  0.0000  1.0000 )  

     reciprocal axes: (cart. coord. in units 2 pi/alat)
               b(1) = (  1.0000  0.0000  0.0000 )  
               b(2) = (  0.0000  1.0000  0.0000 )  
               b(3) = (  0.0000  0.0000  1.0000 )  


     Atoms inside the unit cell: 

     Cartesian axes

     site n.  atom      mass           positions (alat units)
        1     Ca  40.0780   tau(    1) = (    0.50000    0.50000    0.50000  )
        2     Au 196.9670   tau(    2) = (   -0.00000   -0.00000   -0.00000  )
        3     H    1.0080   tau(    3) = (    0.50000    0.00000    0.00000  )
        4     H    1.0080   tau(    4) = (    0.00000    0.50000    0.00000  )
        5     H    1.0080   tau(    5) = (    0.00000    0.00000    0.50000  )

     Computing dynamical matrix for 
                    q = (   0.0000000   0.0000000   0.0000000 )

     49 Sym.Ops. (with q -> -q+G )


     G cutoff =  757.5949  (  10924 G-vectors)     FFT grid: ( 60, 60, 60)
     G cutoff =  378.7975  (   3880 G-vectors)  smooth grid: ( 40, 40, 40)

     number of k points=   165  Methfessel-Paxton smearing, width (Ry)=  0.0200

     PseudoPot. # 1 for Ca read from file:
     ./pseudo/Ca.pbe-spn-rrkjus_psl.1.0.0.UPF
     MD5 check sum: be476cbee6758b394af5fd17922f3fca
     Pseudo is Ultrasoft + core correction, Zval = 10.0
     Generated using &quot;atomic&quot; code by A. Dal Corso  v.6.2.2
     Using radial grid of 1169 points,  6 beta functions with: 
                l(1) =   0
                l(2) =   0
                l(3) =   1
                l(4) =   1
                l(5) =   2
                l(6) =   2
     Q(r) pseudized with 0 coefficients 


     PseudoPot. # 2 for Au read from file:
     ./pseudo/Au.pbe-n-rrkjus_psl.1.0.0.UPF
     MD5 check sum: d7e77ba19504afed2c9b41c931dde4f0
     Pseudo is Ultrasoft + core correction, Zval = 11.0
     Generated using &quot;atomic&quot; code by A. Dal Corso  v.6.3
     Using radial grid of 1279 points,  6 beta functions with: 
                l(1) =   0
                l(2) =   0
                l(3) =   1
                l(4) =   1
                l(5) =   2
                l(6) =   2
     Q(r) pseudized with 0 coefficients 


     PseudoPot. # 3 for H  read from file:
     ./pseudo/H.pbe-rrkjus_psl.1.0.0.UPF
     MD5 check sum: 3f4114867bd07edc7f1424d066fc1888
     Pseudo is Ultrasoft, Zval =  1.0
     Generated using &quot;atomic&quot; code by A. Dal Corso  v.6.3MaX
     Using radial grid of  929 points,  2 beta functions with: 
                l(1) =   0
                l(2) =   0
     Q(r) pseudized with 0 coefficients 


     Mode symmetry, O_h (m-3m)  point group:


     Atomic displacements:
     There are    5 irreducible representations

     Representation     1      3 modes -  To be done

     Representation     2      3 modes -  To be done

     Representation     3      3 modes -  To be done

     Representation     4      3 modes -  To be done

     Representation     5      3 modes -  To be done



     Alpha used in Ewald sum =   2.8000
     PHONON       :     20.29s CPU     20.85s WALL



     Representation #   1 modes #   1   2   3

     Self-consistent Calculation

     Pert. #  1: Fermi energy shift (Ry) =     5.5145E-25     6.2693E-38
     Pert. #  2: Fermi energy shift (Ry) =     2.7687E-25    -7.8858E-38
     Pert. #  3: Fermi energy shift (Ry) =    -3.1613E-25    -1.4589E-37

      iter #   1 total cpu time :    69.3 secs   av.it.:   6.5
      thresh= 1.000E-02 alpha_mix =  0.700 |ddv_scf|^2 =  3.391E-09

     Pert. #  1: Fermi energy shift (Ry) =     2.0680E-25    -1.8367E-40
     Pert. #  2: Fermi energy shift (Ry) =     2.0952E-25     2.6114E-40
     Pert. #  3: Fermi energy shift (Ry) =    -1.5868E-25    -1.5591E-41

      iter #   2 total cpu time :   188.5 secs   av.it.:  20.8
      thresh= 5.824E-06 alpha_mix =  0.700 |ddv_scf|^2 =  4.847E-10

     Pert. #  1: Fermi energy shift (Ry) =     4.8252E-25    -1.5306E-41
     Pert. #  2: Fermi energy shift (Ry) =    -6.8658E-25    -5.2362E-41
     Pert. #  3: Fermi energy shift (Ry) =    -1.5813E-25    -3.8977E-42

      iter #   3 total cpu time :   306.5 secs   av.it.:  20.6
      thresh= 2.202E-06 alpha_mix =  0.700 |ddv_scf|^2 =  6.464E-12

     Pert. #  1: Fermi energy shift (Ry) =     2.0680E-25    -3.8265E-42
     Pert. #  2: Fermi energy shift (Ry) =     3.4920E-25    -1.1448E-42
     Pert. #  3: Fermi energy shift (Ry) =    -1.5824E-25    -3.2006E-42

      iter #   4 total cpu time :   416.2 secs   av.it.:  20.9
      thresh= 2.543E-07 alpha_mix =  0.700 |ddv_scf|^2 =  1.352E-13

     Pert. #  1: Fermi energy shift (Ry) =    -6.8932E-26     3.8265E-42
     Pert. #  2: Fermi energy shift (Ry) =     4.8672E-25     2.6161E-42
     Pert. #  3: Fermi energy shift (Ry) =    -1.5817E-25    -3.5829E-42

      iter #   5 total cpu time :   487.7 secs   av.it.:  20.2
      thresh= 3.678E-08 alpha_mix =  0.700 |ddv_scf|^2 =  7.041E-15

     End of self-consistent calculation

     Convergence has been achieved 


     Representation #   2 modes #   4   5   6

     Self-consistent Calculation

     Pert. #  1: Fermi energy shift (Ry) =     1.2408E-24     0.0000E+00
     Pert. #  2: Fermi energy shift (Ry) =     5.5145E-25     0.0000E+00
     Pert. #  3: Fermi energy shift (Ry) =     0.0000E+00     0.0000E+00

      iter #   1 total cpu time :   534.1 secs   av.it.:  10.3
      thresh= 1.000E-02 alpha_mix =  0.700 |ddv_scf|^2 =  2.866E-07

     Pert. #  1: Fermi energy shift (Ry) =     1.6544E-24     0.0000E+00
     Pert. #  2: Fermi energy shift (Ry) =     2.2058E-24     0.0000E+00
     Pert. #  3: Fermi energy shift (Ry) =     5.5145E-25     0.0000E+00

      iter #   2 total cpu time :   606.1 secs   av.it.:  20.7
      thresh= 5.354E-05 alpha_mix =  0.700 |ddv_scf|^2 =  5.136E-08

     Pert. #  1: Fermi energy shift (Ry) =     1.5165E-24     0.0000E+00
     Pert. #  2: Fermi energy shift (Ry) =    -5.5145E-25     0.0000E+00
     Pert. #  3: Fermi energy shift (Ry) =     0.0000E+00     0.0000E+00

      iter #   3 total cpu time :   677.2 secs   av.it.:  20.5
      thresh= 2.266E-05 alpha_mix =  0.700 |ddv_scf|^2 =  9.104E-11

     Pert. #  1: Fermi energy shift (Ry) =     3.4466E-25     0.0000E+00
     Pert. #  2: Fermi energy shift (Ry) =    -5.5145E-25     0.0000E+00
     Pert. #  3: Fermi energy shift (Ry) =     0.0000E+00     0.0000E+00

      iter #   4 total cpu time :   750.4 secs   av.it.:  21.1
      thresh= 9.542E-07 alpha_mix =  0.700 |ddv_scf|^2 =  7.277E-12

     Pert. #  1: Fermi energy shift (Ry) =     2.8951E-24     0.0000E+00
     Pert. #  2: Fermi energy shift (Ry) =    -5.5145E-25     0.0000E+00
     Pert. #  3: Fermi energy shift (Ry) =     1.1029E-24     0.0000E+00

      iter #   5 total cpu time :   822.9 secs   av.it.:  20.9
      thresh= 2.698E-07 alpha_mix =  0.700 |ddv_scf|^2 =  7.126E-14

     Pert. #  1: Fermi energy shift (Ry) =     6.2039E-25     0.0000E+00
     Pert. #  2: Fermi energy shift (Ry) =    -5.5145E-25     0.0000E+00
     Pert. #  3: Fermi energy shift (Ry) =    -1.1029E-24     0.0000E+00

      iter #   6 total cpu time :   894.4 secs   av.it.:  20.7
      thresh= 2.669E-08 alpha_mix =  0.700 |ddv_scf|^2 =  1.227E-15

     End of self-consistent calculation

     Convergence has been achieved 


     Representation #   3 modes #   7   8   9

     Self-consistent Calculation

     Pert. #  1: Fermi energy shift (Ry) =    -6.6174E-24     0.0000E+00
     Pert. #  2: Fermi energy shift (Ry) =     2.2058E-24     0.0000E+00
     Pert. #  3: Fermi energy shift (Ry) =     0.0000E+00     0.0000E+00

      iter #   1 total cpu time :   942.1 secs   av.it.:  10.8
      thresh= 1.000E-02 alpha_mix =  0.700 |ddv_scf|^2 =  3.596E-07

     Pert. #  1: Fermi energy shift (Ry) =     2.7573E-25     0.0000E+00
     Pert. #  2: Fermi energy shift (Ry) =     1.1029E-24     0.0000E+00
     Pert. #  3: Fermi energy shift (Ry) =     0.0000E+00     0.0000E+00

      iter #   2 total cpu time :  1014.0 secs   av.it.:  20.8
      thresh= 5.997E-05 alpha_mix =  0.700 |ddv_scf|^2 =  7.243E-08

     Pert. #  1: Fermi energy shift (Ry) =    -1.1029E-24     0.0000E+00
     Pert. #  2: Fermi energy shift (Ry) =    -1.3786E-24     0.0000E+00
     Pert. #  3: Fermi energy shift (Ry) =    -5.5145E-25     0.0000E+00

      iter #   3 total cpu time :  1085.5 secs   av.it.:  20.5
      thresh= 2.691E-05 alpha_mix =  0.700 |ddv_scf|^2 =  2.108E-10

     Pert. #  1: Fermi energy shift (Ry) =     4.1359E-24     0.0000E+00
     Pert. #  2: Fermi energy shift (Ry) =     0.0000E+00     0.0000E+00
     Pert. #  3: Fermi energy shift (Ry) =     0.0000E+00     0.0000E+00

      iter #   4 total cpu time :  1158.9 secs   av.it.:  21.1
      thresh= 1.452E-06 alpha_mix =  0.700 |ddv_scf|^2 =  1.381E-11

     Pert. #  1: Fermi energy shift (Ry) =    -1.3786E-24     0.0000E+00
     Pert. #  2: Fermi energy shift (Ry) =     1.1029E-24     0.0000E+00
     Pert. #  3: Fermi energy shift (Ry) =     0.0000E+00     0.0000E+00

      iter #   5 total cpu time :  1228.7 secs   av.it.:  20.1
      thresh= 3.716E-07 alpha_mix =  0.700 |ddv_scf|^2 =  1.111E-13

     Pert. #  1: Fermi energy shift (Ry) =    -3.5844E-24     0.0000E+00
     Pert. #  2: Fermi energy shift (Ry) =     2.7573E-25     0.0000E+00
     Pert. #  3: Fermi energy shift (Ry) =    -5.5145E-25     0.0000E+00

      iter #   6 total cpu time :  1299.2 secs   av.it.:  20.4
      thresh= 3.333E-08 alpha_mix =  0.700 |ddv_scf|^2 =  1.320E-15

     End of self-consistent calculation

     Convergence has been achieved 


     Representation #   4 modes #  10  11  12

     Self-consistent Calculation

     Pert. #  1: Fermi energy shift (Ry) =     6.8932E-25    -7.0530E-38
     Pert. #  2: Fermi energy shift (Ry) =    -2.2026E-24     1.5445E-38
     Pert. #  3: Fermi energy shift (Ry) =    -5.0083E-25    -3.5265E-38

      iter #   1 total cpu time :  1332.6 secs   av.it.:   6.3
      thresh= 1.000E-02 alpha_mix =  0.700 |ddv_scf|^2 =  4.486E-09

     Pert. #  1: Fermi energy shift (Ry) =    -8.1856E-26     1.2723E-40
     Pert. #  2: Fermi energy shift (Ry) =    -1.8724E-24    -6.7881E-40
     Pert. #  3: Fermi energy shift (Ry) =     1.7771E-25    -9.8651E-42

      iter #   2 total cpu time :  1403.9 secs   av.it.:  20.6
      thresh= 6.698E-06 alpha_mix =  0.700 |ddv_scf|^2 =  7.374E-10

     Pert. #  1: Fermi energy shift (Ry) =     6.5485E-25     3.0492E-41
     Pert. #  2: Fermi energy shift (Ry) =     2.2584E-24    -4.2686E-41
     Pert. #  3: Fermi energy shift (Ry) =    -1.6593E-25    -3.8265E-41

      iter #   3 total cpu time :  1475.0 secs   av.it.:  20.6
      thresh= 2.716E-06 alpha_mix =  0.700 |ddv_scf|^2 =  3.580E-12

     Pert. #  1: Fermi energy shift (Ry) =     1.1417E-25    -1.9132E-42
     Pert. #  2: Fermi energy shift (Ry) =    -1.2678E-24    -7.5786E-42
     Pert. #  3: Fermi energy shift (Ry) =     5.5292E-25    -4.7831E-42

      iter #   4 total cpu time :  1561.4 secs   av.it.:  20.9
      thresh= 1.892E-07 alpha_mix =  0.700 |ddv_scf|^2 =  2.802E-13

     Pert. #  1: Fermi energy shift (Ry) =     6.0315E-25     5.4090E-43
     Pert. #  2: Fermi energy shift (Ry) =     2.1216E-25     5.9324E-43
     Pert. #  3: Fermi energy shift (Ry) =    -4.1169E-25     2.3915E-43

      iter #   5 total cpu time :  1661.7 secs   av.it.:  20.4
      thresh= 5.294E-08 alpha_mix =  0.700 |ddv_scf|^2 =  4.565E-15

     End of self-consistent calculation

     Convergence has been achieved 


     Representation #   5 modes #  13  14  15

     Self-consistent Calculation

     Pert. #  1: Fermi energy shift (Ry) =     8.8233E-24     0.0000E+00
     Pert. #  2: Fermi energy shift (Ry) =    -2.0955E-23     5.3289E-37
     Pert. #  3: Fermi energy shift (Ry) =     1.3235E-23    -1.8808E-37

      iter #   1 total cpu time :  1712.5 secs   av.it.:   6.1
      thresh= 1.000E-02 alpha_mix =  0.700 |ddv_scf|^2 =  5.831E-10

     Pert. #  1: Fermi energy shift (Ry) =    -6.8932E-25    -3.0612E-41
     Pert. #  2: Fermi energy shift (Ry) =    -5.8592E-25     3.8265E-41
     Pert. #  3: Fermi energy shift (Ry) =    -2.2403E-25     2.2959E-41

      iter #   2 total cpu time :  1825.3 secs   av.it.:  21.2
      thresh= 2.415E-06 alpha_mix =  0.700 |ddv_scf|^2 =  1.662E-11

     Pert. #  1: Fermi energy shift (Ry) =    -1.3786E-25     1.5306E-41
     Pert. #  2: Fermi energy shift (Ry) =     2.3264E-25     4.4005E-41
     Pert. #  3: Fermi energy shift (Ry) =     1.3786E-25    -3.8265E-42

      iter #   3 total cpu time :  1936.5 secs   av.it.:  21.3
      thresh= 4.077E-07 alpha_mix =  0.700 |ddv_scf|^2 =  2.060E-13

     Pert. #  1: Fermi energy shift (Ry) =    -2.0680E-25     0.0000E+00
     Pert. #  2: Fermi energy shift (Ry) =     1.1977E-24    -4.7831E-43
     Pert. #  3: Fermi energy shift (Ry) =     0.0000E+00    -9.5662E-43

      iter #   4 total cpu time :  2040.1 secs   av.it.:  19.7
      thresh= 4.538E-08 alpha_mix =  0.700 |ddv_scf|^2 =  5.497E-16

     End of self-consistent calculation

     Convergence has been achieved 

     Number of q in the star =    1
     List of q in the star:
          1   0.000000000   0.000000000   0.000000000

     Diagonalizing the dynamical matrix

     q = (    0.000000000   0.000000000   0.000000000 ) 

 **************************************************************************
     freq (    1) =       0.324985 [THz] =      10.840339 [cm-1]
     freq (    2) =       0.324985 [THz] =      10.840339 [cm-1]
     freq (    3) =       0.324985 [THz] =      10.840339 [cm-1]
     freq (    4) =       3.861498 [THz] =     128.805724 [cm-1]
     freq (    5) =       3.861498 [THz] =     128.805724 [cm-1]
     freq (    6) =       3.861498 [THz] =     128.805724 [cm-1]
     freq (    7) =      13.958212 [THz] =     465.595822 [cm-1]
     freq (    8) =      13.958212 [THz] =     465.595822 [cm-1]
     freq (    9) =      13.958212 [THz] =     465.595822 [cm-1]
     freq (   10) =      14.612742 [THz] =     487.428614 [cm-1]
     freq (   11) =      14.612742 [THz] =     487.428614 [cm-1]
     freq (   12) =      14.612742 [THz] =     487.428614 [cm-1]
     freq (   13) =      46.532749 [THz] =    1552.165448 [cm-1]
     freq (   14) =      46.532749 [THz] =    1552.165448 [cm-1]
     freq (   15) =      46.532749 [THz] =    1552.165448 [cm-1]
 **************************************************************************

     Mode symmetry, O_h (m-3m)  point group:

     freq (   1-   3) =         10.8  [cm-1]   --> T_1u G_15  G_4- I  
     freq (   4-   6) =        128.8  [cm-1]   --> T_1u G_15  G_4- I  
     freq (   7-   9) =        465.6  [cm-1]   --> T_1u G_15  G_4- I  
     freq (  10-  12) =        487.4  [cm-1]   --> T_2u G_25  G_5-    
     freq (  13-  15) =       1552.2  [cm-1]   --> T_1u G_15  G_4- I  

     Gaussian Broadening:   0.005 Ry, ngauss=   0
     DOS =  8.782034 states/spin/Ry/Unit Cell at Ef= 13.322185 eV
     double delta at Ef =**********
     lambda(    1)=  0.0000   gamma=    0.00 GHz
     lambda(    2)=  0.0000   gamma=    0.00 GHz
     lambda(    3)=  0.0000   gamma=    0.00 GHz
     lambda(    4)=  0.0000   gamma=    0.00 GHz
     lambda(    5)=  0.0000   gamma=    0.00 GHz
     lambda(    6)=  0.0000   gamma=    0.00 GHz
     lambda(    7)=  0.0000   gamma=    0.00 GHz
     lambda(    8)=  0.0000   gamma=    0.00 GHz
     lambda(    9)=  0.0000   gamma=    0.00 GHz
     lambda(   10)=  0.0579   gamma=  103.77 GHz
     lambda(   11)=  0.0579   gamma=  103.77 GHz
     lambda(   12)=  0.0579   gamma=  103.77 GHz
     lambda(   13)=  0.0000   gamma=    0.00 GHz
     lambda(   14)=  0.0000   gamma=    0.00 GHz
     lambda(   15)=  0.0000   gamma=    0.00 GHz

     Gaussian Broadening:   0.010 Ry, ngauss=   0
     DOS =  4.910102 states/spin/Ry/Unit Cell at Ef= 13.292525 eV
     double delta at Ef =404.246228
     lambda(    1)=  0.0000   gamma=    0.00 GHz
     lambda(    2)=  0.0000   gamma=    0.00 GHz
     lambda(    3)=  0.0000   gamma=    0.00 GHz
     lambda(    4)=  0.0032   gamma=    0.22 GHz
     lambda(    5)=  0.0032   gamma=    0.22 GHz
     lambda(    6)=  0.0032   gamma=    0.22 GHz
     lambda(    7)=  0.0058   gamma=    5.33 GHz
     lambda(    8)=  0.0058   gamma=    5.33 GHz
     lambda(    9)=  0.0058   gamma=    5.33 GHz
     lambda(   10)=  0.0363   gamma=   36.39 GHz
     lambda(   11)=  0.0363   gamma=   36.39 GHz
     lambda(   12)=  0.0363   gamma=   36.39 GHz
     lambda(   13)=  0.0000   gamma=    0.22 GHz
     lambda(   14)=  0.0000   gamma=    0.22 GHz
     lambda(   15)=  0.0000   gamma=    0.22 GHz

     Gaussian Broadening:   0.015 Ry, ngauss=   0
     DOS =  3.982111 states/spin/Ry/Unit Cell at Ef= 13.264305 eV
     double delta at Ef =241.238928
     lambda(    1)=  0.0000   gamma=    0.00 GHz
     lambda(    2)=  0.0000   gamma=    0.00 GHz
     lambda(    3)=  0.0000   gamma=    0.00 GHz
     lambda(    4)=  0.0217   gamma=    1.23 GHz
     lambda(    5)=  0.0217   gamma=    1.23 GHz
     lambda(    6)=  0.0217   gamma=    1.23 GHz
     lambda(    7)=  0.0378   gamma=   27.99 GHz
     lambda(    8)=  0.0378   gamma=   27.99 GHz
     lambda(    9)=  0.0378   gamma=   27.99 GHz
     lambda(   10)=  0.0284   gamma=   23.03 GHz
     lambda(   11)=  0.0284   gamma=   23.03 GHz
     lambda(   12)=  0.0284   gamma=   23.03 GHz
     lambda(   13)=  0.0001   gamma=    1.11 GHz
     lambda(   14)=  0.0001   gamma=    1.11 GHz
     lambda(   15)=  0.0001   gamma=    1.11 GHz

     Gaussian Broadening:   0.020 Ry, ngauss=   0
     DOS =  4.362145 states/spin/Ry/Unit Cell at Ef= 13.253272 eV
     double delta at Ef =208.126362
     lambda(    1)=  0.0000   gamma=    0.00 GHz
     lambda(    2)=  0.0000   gamma=    0.00 GHz
     lambda(    3)=  0.0000   gamma=    0.00 GHz
     lambda(    4)=  0.0409   gamma=    2.54 GHz
     lambda(    5)=  0.0409   gamma=    2.54 GHz
     lambda(    6)=  0.0409   gamma=    2.54 GHz
     lambda(    7)=  0.0665   gamma=   53.98 GHz
     lambda(    8)=  0.0665   gamma=   53.98 GHz
     lambda(    9)=  0.0665   gamma=   53.98 GHz
     lambda(   10)=  0.0284   gamma=   25.27 GHz
     lambda(   11)=  0.0284   gamma=   25.27 GHz
     lambda(   12)=  0.0284   gamma=   25.27 GHz
     lambda(   13)=  0.0002   gamma=    2.25 GHz
     lambda(   14)=  0.0002   gamma=    2.25 GHz
     lambda(   15)=  0.0002   gamma=    2.25 GHz

     Gaussian Broadening:   0.025 Ry, ngauss=   0
     DOS =  4.717814 states/spin/Ry/Unit Cell at Ef= 13.251171 eV
     double delta at Ef =192.289775
     lambda(    1)=  0.0000   gamma=    0.00 GHz
     lambda(    2)=  0.0000   gamma=    0.00 GHz
     lambda(    3)=  0.0000   gamma=    0.00 GHz
     lambda(    4)=  0.0566   gamma=    3.80 GHz
     lambda(    5)=  0.0566   gamma=    3.80 GHz
     lambda(    6)=  0.0566   gamma=    3.80 GHz
     lambda(    7)=  0.0830   gamma=   72.84 GHz
     lambda(    8)=  0.0830   gamma=   72.84 GHz
     lambda(    9)=  0.0830   gamma=   72.84 GHz
     lambda(   10)=  0.0343   gamma=   32.97 GHz
     lambda(   11)=  0.0343   gamma=   32.97 GHz
     lambda(   12)=  0.0343   gamma=   32.97 GHz
     lambda(   13)=  0.0004   gamma=    3.58 GHz
     lambda(   14)=  0.0004   gamma=    3.58 GHz
     lambda(   15)=  0.0004   gamma=    3.58 GHz

     Gaussian Broadening:   0.030 Ry, ngauss=   0
     DOS =  4.915856 states/spin/Ry/Unit Cell at Ef= 13.253767 eV
     double delta at Ef =181.297750
     lambda(    1)=  0.0000   gamma=    0.01 GHz
     lambda(    2)=  0.0000   gamma=    0.01 GHz
     lambda(    3)=  0.0000   gamma=    0.01 GHz
     lambda(    4)=  0.0740   gamma=    5.18 GHz
     lambda(    5)=  0.0740   gamma=    5.18 GHz
     lambda(    6)=  0.0740   gamma=    5.18 GHz
     lambda(    7)=  0.0938   gamma=   85.76 GHz
     lambda(    8)=  0.0938   gamma=   85.76 GHz
     lambda(    9)=  0.0938   gamma=   85.76 GHz
     lambda(   10)=  0.0427   gamma=   42.81 GHz
     lambda(   11)=  0.0427   gamma=   42.81 GHz
     lambda(   12)=  0.0427   gamma=   42.81 GHz
     lambda(   13)=  0.0005   gamma=    5.39 GHz
     lambda(   14)=  0.0005   gamma=    5.39 GHz
     lambda(   15)=  0.0005   gamma=    5.39 GHz

     Gaussian Broadening:   0.035 Ry, ngauss=   0
     DOS =  5.030043 states/spin/Ry/Unit Cell at Ef= 13.259196 eV
     double delta at Ef =173.862427
     lambda(    1)=  0.0000   gamma=    0.01 GHz
     lambda(    2)=  0.0000   gamma=    0.01 GHz
     lambda(    3)=  0.0000   gamma=    0.01 GHz
     lambda(    4)=  0.0952   gamma=    6.82 GHz
     lambda(    5)=  0.0952   gamma=    6.82 GHz
     lambda(    6)=  0.0952   gamma=    6.82 GHz
     lambda(    7)=  0.1026   gamma=   96.03 GHz
     lambda(    8)=  0.1026   gamma=   96.03 GHz
     lambda(    9)=  0.1026   gamma=   96.03 GHz
     lambda(   10)=  0.0532   gamma=   54.53 GHz
     lambda(   11)=  0.0532   gamma=   54.53 GHz
     lambda(   12)=  0.0532   gamma=   54.53 GHz
     lambda(   13)=  0.0007   gamma=    7.75 GHz
     lambda(   14)=  0.0007   gamma=    7.75 GHz
     lambda(   15)=  0.0007   gamma=    7.75 GHz

     Gaussian Broadening:   0.040 Ry, ngauss=   0
     DOS =  5.159704 states/spin/Ry/Unit Cell at Ef= 13.264656 eV
     double delta at Ef =169.112498
     lambda(    1)=  0.0000   gamma=    0.01 GHz
     lambda(    2)=  0.0000   gamma=    0.01 GHz
     lambda(    3)=  0.0000   gamma=    0.01 GHz
     lambda(    4)=  0.1169   gamma=    8.59 GHz
     lambda(    5)=  0.1169   gamma=    8.59 GHz
     lambda(    6)=  0.1169   gamma=    8.59 GHz
     lambda(    7)=  0.1094   gamma=  104.98 GHz
     lambda(    8)=  0.1094   gamma=  104.98 GHz
     lambda(    9)=  0.1094   gamma=  104.98 GHz
     lambda(   10)=  0.0642   gamma=   67.53 GHz
     lambda(   11)=  0.0642   gamma=   67.53 GHz
     lambda(   12)=  0.0642   gamma=   67.53 GHz
     lambda(   13)=  0.0010   gamma=   10.42 GHz
     lambda(   14)=  0.0010   gamma=   10.42 GHz
     lambda(   15)=  0.0010   gamma=   10.42 GHz

     Gaussian Broadening:   0.045 Ry, ngauss=   0
     DOS =  5.343581 states/spin/Ry/Unit Cell at Ef= 13.267581 eV
     double delta at Ef =165.966036
     lambda(    1)=  0.0000   gamma=    0.02 GHz
     lambda(    2)=  0.0000   gamma=    0.02 GHz
     lambda(    3)=  0.0000   gamma=    0.02 GHz
     lambda(    4)=  0.1352   gamma=   10.29 GHz
     lambda(    5)=  0.1352   gamma=   10.29 GHz
     lambda(    6)=  0.1352   gamma=   10.29 GHz
     lambda(    7)=  0.1133   gamma=  112.68 GHz
     lambda(    8)=  0.1133   gamma=  112.68 GHz
     lambda(    9)=  0.1133   gamma=  112.68 GHz
     lambda(   10)=  0.0739   gamma=   80.55 GHz
     lambda(   11)=  0.0739   gamma=   80.55 GHz
     lambda(   12)=  0.0739   gamma=   80.55 GHz
     lambda(   13)=  0.0012   gamma=   13.15 GHz
     lambda(   14)=  0.0012   gamma=   13.15 GHz
     lambda(   15)=  0.0012   gamma=   13.15 GHz

     Gaussian Broadening:   0.050 Ry, ngauss=   0
     DOS =  5.567850 states/spin/Ry/Unit Cell at Ef= 13.266759 eV
     double delta at Ef =163.514981
     lambda(    1)=  0.0000   gamma=    0.02 GHz
     lambda(    2)=  0.0000   gamma=    0.02 GHz
     lambda(    3)=  0.0000   gamma=    0.02 GHz
     lambda(    4)=  0.1485   gamma=   11.77 GHz
     lambda(    5)=  0.1485   gamma=   11.77 GHz
     lambda(    6)=  0.1485   gamma=   11.77 GHz
     lambda(    7)=  0.1149   gamma=  119.06 GHz
     lambda(    8)=  0.1149   gamma=  119.06 GHz
     lambda(    9)=  0.1149   gamma=  119.06 GHz
     lambda(   10)=  0.0815   gamma=   92.56 GHz
     lambda(   11)=  0.0815   gamma=   92.56 GHz
     lambda(   12)=  0.0815   gamma=   92.56 GHz
     lambda(   13)=  0.0014   gamma=   15.75 GHz
     lambda(   14)=  0.0014   gamma=   15.75 GHz
     lambda(   15)=  0.0014   gamma=   15.75 GHz

     Calculation of q =    0.0000000   0.0000000   0.2500000

     Subspace diagonalization in iterative solution of the eigenvalue problem:
     one sub-group per band group will be used
     scalapack distributed-memory algorithm (size of sub-group:  2*  2 procs)


     Parallelization info
     --------------------
     sticks:   dense  smooth     PW     G-vecs:    dense   smooth      PW
     Min         298     150     44                10923     3878     640
     Max         299     151     45                10924     3881     643
     Sum        2385    1201    357                87391    31031    5137


     Title: 
     CaAuH3 phonon + electron-phonon 4x4x4 q (RTSC A11 · SrAuH3 Ca-variant · p


     bravais-lattice index     =            1
     lattice parameter (alat)  =       6.8361  a.u.
     unit-cell volume          =     319.4664 (a.u.)^3
     number of atoms/cell      =            5
     number of atomic types    =            3
     number of electrons       =        24.00
     number of Kohn-Sham states=           16
     kinetic-energy cutoff     =      80.0000  Ry
     charge density cutoff     =     640.0000  Ry
     Exchange-correlation= PBE
                           (   1   4   3   4   0   0   0)

     celldm(1)=   6.836100  celldm(2)=   0.000000  celldm(3)=   0.000000
     celldm(4)=   0.000000  celldm(5)=   0.000000  celldm(6)=   0.000000

     crystal axes: (cart. coord. in units of alat)
               a(1) = (   1.000000   0.000000   0.000000 )  
               a(2) = (   0.000000   1.000000   0.000000 )  
               a(3) = (   0.000000   0.000000   1.000000 )  

     reciprocal axes: (cart. coord. in units 2 pi/alat)
               b(1) = (  1.000000  0.000000  0.000000 )  
               b(2) = (  0.000000  1.000000  0.000000 )  
               b(3) = (  0.000000  0.000000  1.000000 )  


     PseudoPot. # 1 for Ca read from file:
     ./pseudo/Ca.pbe-spn-rrkjus_psl.1.0.0.UPF
     MD5 check sum: be476cbee6758b394af5fd17922f3fca
     Pseudo is Ultrasoft + core correction, Zval = 10.0
     Generated using &quot;atomic&quot; code by A. Dal Corso  v.6.2.2
     Using radial grid of 1169 points,  6 beta functions with: 
                l(1) =   0
                l(2) =   0
                l(3) =   1
                l(4) =   1
                l(5) =   2
                l(6) =   2
     Q(r) pseudized with 0 coefficients 


     PseudoPot. # 2 for Au read from file:
     ./pseudo/Au.pbe-n-rrkjus_psl.1.0.0.UPF
     MD5 check sum: d7e77ba19504afed2c9b41c931dde4f0
     Pseudo is Ultrasoft + core correction, Zval = 11.0
     Generated using &quot;atomic&quot; code by A. Dal Corso  v.6.3
     Using radial grid of 1279 points,  6 beta functions with: 
                l(1) =   0
                l(2) =   0
                l(3) =   1
                l(4) =   1
                l(5) =   2
                l(6) =   2
     Q(r) pseudized with 0 coefficients 


     PseudoPot. # 3 for H  read from file:
     ./pseudo/H.pbe-rrkjus_psl.1.0.0.UPF
     MD5 check sum: 3f4114867bd07edc7f1424d066fc1888
     Pseudo is Ultrasoft, Zval =  1.0
     Generated using &quot;atomic&quot; code by A. Dal Corso  v.6.3MaX
     Using radial grid of  929 points,  2 beta functions with: 
                l(1) =   0
                l(2) =   0
     Q(r) pseudized with 0 coefficients 


     atomic species   valence    mass     pseudopotential
        Ca            10.00    40.07800     Ca( 1.00)
        Au            11.00   196.96700     Au( 1.00)
        H              1.00     1.00800     H ( 1.00)

     48 Sym. Ops., with inversion, found



   Cartesian axes

     site n.     atom                  positions (alat units)
         1           Ca  tau(   1) = (   0.5000000   0.5000000   0.5000000  )
         2           Au  tau(   2) = (  -0.0000000  -0.0000000  -0.0000000  )
         3           H   tau(   3) = (   0.5000000   0.0000000   0.0000000  )
         4           H   tau(   4) = (   0.0000000   0.5000000   0.0000000  )
         5           H   tau(   5) = (   0.0000000   0.0000000   0.5000000  )

     number of k points=  1440  Methfessel-Paxton smearing, width (Ry)=  0.0200

     Number of k-points >= 100: set verbosity='high' to print them.

     Dense  grid:    87391 G-vectors     FFT dimensions: (  60,  60,  60)

     Smooth grid:    31031 G-vectors     FFT dimensions: (  40,  40,  40)

     Estimated max dynamical RAM per process >      42.17 MB

     Estimated total dynamical RAM >     337.33 MB

     The potential is recalculated from file :
     ./out/_ph0/caauh3.q_2/caauh3.save/charge-density

     Starting wfcs are   20 atomic wfcs

     Band Structure Calculation
     Davidson diagonalization with overlap
     c_bands:  1 eigenvalues not converged
     c_bands:  1 eigenvalues not converged
     c_bands:  1 eigenvalues not converged
     c_bands:  1 eigenvalues not converged
     c_bands:  1 eigenvalues not converged
     c_bands:  1 eigenvalues not converged
     c_bands:  1 eigenvalues not converged
     c_bands:  1 eigenvalues not converged
     c_bands:  1 eigenvalues not converged
     c_bands:  1 eigenvalues not converged
     c_bands:  1 eigenvalues not converged
     c_bands:  1 eigenvalues not converged
     c_bands:  1 eigenvalues not converged
     c_bands:  1 eigenvalues not converged
     c_bands:  1 eigenvalues not converged
     c_bands:  1 eigenvalues not converged
     c_bands:  1 eigenvalues not converged
     c_bands:  1 eigenvalues not converged
     c_bands:  1 eigenvalues not converged
     c_bands:  1 eigenvalues not converged
     c_bands:  1 eigenvalues not converged
     c_bands:  1 eigenvalues not converged
     c_bands:  1 eigenvalues not converged
     c_bands:  1 eigenvalues not converged

     ethr =  4.17E-11,  avg # of iterations = 48.2

     total cpu time spent up to now is      660.9 secs

     End of band structure calculation

     Number of k-points >= 100: set verbosity='high' to print the bands.

     the Fermi energy is    13.2533 ev

     Writing output data file ./out/_ph0/caauh3.q_2/caauh3.save/
WARNING(FoX)
emitting non-ASCII character. Platform-dependent result!
WARNING(FoX)
emitting non-ASCII character. Platform-dependent result!
WARNING(FoX)
emitting non-ASCII character. Platform-dependent result!
WARNING(FoX)
emitting non-ASCII character. Platform-dependent result!

     CaAuH3 phonon + electron-phonon 4x4x4 q (RTSC A11 · SrAuH3 Ca-variant · p

     bravais-lattice index     =            1
     lattice parameter (alat)  =       6.8361  a.u.
     unit-cell volume          =     319.4664 (a.u.)^3
     number of atoms/cell      =            5
     number of atomic types    =            3
     kinetic-energy cut-off    =      80.0000  Ry
     charge density cut-off    =     640.0000  Ry
     convergence threshold     =      1.0E-14
     beta                      =       0.7000
     number of iterations used =            4
     Exchange-correlation= PBE
                           (   1   4   3   4   0   0   0)


     celldm(1)=    6.83610  celldm(2)=    0.00000  celldm(3)=    0.00000
     celldm(4)=    0.00000  celldm(5)=    0.00000  celldm(6)=    0.00000

     crystal axes: (cart. coord. in units of alat)
               a(1) = (  1.0000  0.0000  0.0000 )  
               a(2) = (  0.0000  1.0000  0.0000 )  
               a(3) = (  0.0000  0.0000  1.0000 )  

     reciprocal axes: (cart. coord. in units 2 pi/alat)
               b(1) = (  1.0000  0.0000  0.0000 )  
               b(2) = (  0.0000  1.0000  0.0000 )  
               b(3) = (  0.0000  0.0000  1.0000 )  


     Atoms inside the unit cell: 

     Cartesian axes

     site n.  atom      mass           positions (alat units)
        1     Ca  40.0780   tau(    1) = (    0.50000    0.50000    0.50000  )
        2     Au 196.9670   tau(    2) = (   -0.00000   -0.00000   -0.00000  )
        3     H    1.0080   tau(    3) = (    0.50000    0.00000    0.00000  )
        4     H    1.0080   tau(    4) = (    0.00000    0.50000    0.00000  )
        5     H    1.0080   tau(    5) = (    0.00000    0.00000    0.50000  )

     Computing dynamical matrix for 
                    q = (   0.0000000   0.0000000   0.2500000 )

      8 Sym.Ops. (no q -> -q+G )


     G cutoff =  757.5949  (  10924 G-vectors)     FFT grid: ( 60, 60, 60)
     G cutoff =  378.7975  (   3880 G-vectors)  smooth grid: ( 40, 40, 40)

     number of k points=  1440  Methfessel-Paxton smearing, width (Ry)=  0.0200

     PseudoPot. # 1 for Ca read from file:
     ./pseudo/Ca.pbe-spn-rrkjus_psl.1.0.0.UPF
     MD5 check sum: be476cbee6758b394af5fd17922f3fca
     Pseudo is Ultrasoft + core correction, Zval = 10.0
     Generated using &quot;atomic&quot; code by A. Dal Corso  v.6.2.2
     Using radial grid of 1169 points,  6 beta functions with: 
                l(1) =   0
                l(2) =   0
                l(3) =   1
                l(4) =   1
                l(5) =   2
                l(6) =   2
     Q(r) pseudized with 0 coefficients 


     PseudoPot. # 2 for Au read from file:
     ./pseudo/Au.pbe-n-rrkjus_psl.1.0.0.UPF
     MD5 check sum: d7e77ba19504afed2c9b41c931dde4f0
     Pseudo is Ultrasoft + core correction, Zval = 11.0
     Generated using &quot;atomic&quot; code by A. Dal Corso  v.6.3
     Using radial grid of 1279 points,  6 beta functions with: 
                l(1) =   0
                l(2) =   0
                l(3) =   1
                l(4) =   1
                l(5) =   2
                l(6) =   2
     Q(r) pseudized with 0 coefficients 


     PseudoPot. # 3 for H  read from file:
     ./pseudo/H.pbe-rrkjus_psl.1.0.0.UPF
     MD5 check sum: 3f4114867bd07edc7f1424d066fc1888
     Pseudo is Ultrasoft, Zval =  1.0
     Generated using &quot;atomic&quot; code by A. Dal Corso  v.6.3MaX
     Using radial grid of  929 points,  2 beta functions with: 
                l(1) =   0
                l(2) =   0
     Q(r) pseudized with 0 coefficients 


     Mode symmetry, C_4v (4mm)  point group:


     Atomic displacements:
     There are   10 irreducible representations

     Representation     1      1 modes -  To be done

     Representation     2      1 modes -  To be done

     Representation     3      1 modes -  To be done

     Representation     4      1 modes -  To be done

     Representation     5      1 modes -  To be done

     Representation     6      2 modes -  To be done

     Representation     7      2 modes -  To be done

     Representation     8      2 modes -  To be done

     Representation     9      2 modes -  To be done

     Representation    10      2 modes -  To be done



     Alpha used in Ewald sum =   2.8000
     PHONON       :  44m44.77s CPU  46m16.47s WALL



     Representation #   1 mode #   1

     Self-consistent Calculation

      iter #   1 total cpu time :  2885.9 secs   av.it.:  13.0
      thresh= 1.000E-02 alpha_mix =  0.700 |ddv_scf|^2 =  2.628E-03

      iter #   2 total cpu time :  3027.2 secs   av.it.:  18.4
      thresh= 5.126E-03 alpha_mix =  0.700 |ddv_scf|^2 =  2.769E-01

      iter #   3 total cpu time :  3158.0 secs   av.it.:  17.1
      thresh= 1.000E-02 alpha_mix =  0.700 |ddv_scf|^2 =  2.134E-05

      iter #   4 total cpu time :  3300.3 secs   av.it.:  18.8
      thresh= 4.619E-04 alpha_mix =  0.700 |ddv_scf|^2 =  8.815E-06

      iter #   5 total cpu time :  3443.2 secs   av.it.:  18.4
      thresh= 2.969E-04 alpha_mix =  0.700 |ddv_scf|^2 =  5.016E-07

      iter #   6 total cpu time :  3585.1 secs   av.it.:  18.3
      thresh= 7.082E-05 alpha_mix =  0.700 |ddv_scf|^2 =  1.368E-09

      iter #   7 total cpu time :  3733.8 secs   av.it.:  18.8
      thresh= 3.699E-06 alpha_mix =  0.700 |ddv_scf|^2 =  1.146E-11

      iter #   8 total cpu time :  3896.8 secs   av.it.:  20.7
      thresh= 3.386E-07 alpha_mix =  0.700 |ddv_scf|^2 =  6.152E-10

      iter #   9 total cpu time :  4013.4 secs   av.it.:  14.0
      thresh= 2.480E-06 alpha_mix =  0.700 |ddv_scf|^2 =  1.799E-11

      iter #  10 total cpu time :  4159.3 secs   av.it.:  18.1
      thresh= 4.241E-07 alpha_mix =  0.700 |ddv_scf|^2 =  8.470E-12

      iter #  11 total cpu time :  4307.3 secs   av.it.:  18.2
      thresh= 2.910E-07 alpha_mix =  0.700 |ddv_scf|^2 =  2.026E-12

      iter #  12 total cpu time :  4450.4 secs   av.it.:  18.2
      thresh= 1.423E-07 alpha_mix =  0.700 |ddv_scf|^2 =  8.513E-14

      iter #  13 total cpu time :  4599.2 secs   av.it.:  19.7
      thresh= 2.918E-08 alpha_mix =  0.700 |ddv_scf|^2 =  2.336E-14

      iter #  14 total cpu time :  4739.0 secs   av.it.:  18.4
      thresh= 1.528E-08 alpha_mix =  0.700 |ddv_scf|^2 =  5.192E-14

      iter #  15 total cpu time :  4855.9 secs   av.it.:  15.1
      thresh= 2.278E-08 alpha_mix =  0.700 |ddv_scf|^2 =  2.639E-14

      iter #  16 total cpu time :  4982.1 secs   av.it.:  16.0
      thresh= 1.624E-08 alpha_mix =  0.700 |ddv_scf|^2 =  5.835E-16

     End of self-consistent calculation

     Convergence has been achieved 


     Representation #   2 mode #   2

     Self-consistent Calculation

      iter #   1 total cpu time :  5062.2 secs   av.it.:   7.8
      thresh= 1.000E-02 alpha_mix =  0.700 |ddv_scf|^2 =  6.816E-05

      iter #   2 total cpu time :  5201.1 secs   av.it.:  18.4
      thresh= 8.256E-04 alpha_mix =  0.700 |ddv_scf|^2 =  7.361E-03

      iter #   3 total cpu time :  5285.0 secs   av.it.:  13.5
      thresh= 8.580E-03 alpha_mix =  0.700 |ddv_scf|^2 =  1.379E-07

      iter #   4 total cpu time :  5391.1 secs   av.it.:  20.8
      thresh= 3.714E-05 alpha_mix =  0.700 |ddv_scf|^2 =  1.707E-07

      iter #   5 total cpu time :  5488.8 secs   av.it.:  19.0
      thresh= 4.132E-05 alpha_mix =  0.700 |ddv_scf|^2 =  1.389E-09

      iter #   6 total cpu time :  5587.9 secs   av.it.:  19.4
      thresh= 3.727E-06 alpha_mix =  0.700 |ddv_scf|^2 =  2.164E-10

      iter #   7 total cpu time :  5668.5 secs   av.it.:  15.3
      thresh= 1.471E-06 alpha_mix =  0.700 |ddv_scf|^2 =  1.721E-11

      iter #   8 total cpu time :  5765.9 secs   av.it.:  18.4
      thresh= 4.149E-07 alpha_mix =  0.700 |ddv_scf|^2 =  5.189E-10

      iter #   9 total cpu time :  5848.3 secs   av.it.:  14.2
      thresh= 2.278E-06 alpha_mix =  0.700 |ddv_scf|^2 =  3.736E-13

      iter #  10 total cpu time :  5947.3 secs   av.it.:  17.4
      thresh= 6.112E-08 alpha_mix =  0.700 |ddv_scf|^2 =  8.701E-15

     End of self-consistent calculation

     Convergence has been achieved 


     Representation #   3 mode #   3

     Self-consistent Calculation

      iter #   1 total cpu time :  6031.8 secs   av.it.:  12.6
      thresh= 1.000E-02 alpha_mix =  0.700 |ddv_scf|^2 =  3.604E-03

      iter #   2 total cpu time :  6134.1 secs   av.it.:  18.5
      thresh= 6.003E-03 alpha_mix =  0.700 |ddv_scf|^2 =  3.879E-01

      iter #   3 total cpu time :  6233.0 secs   av.it.:  17.5
      thresh= 1.000E-02 alpha_mix =  0.700 |ddv_scf|^2 =  5.924E-06

      iter #   4 total cpu time :  6348.5 secs   av.it.:  20.5
      thresh= 2.434E-04 alpha_mix =  0.700 |ddv_scf|^2 =  7.476E-06

      iter #   5 total cpu time :  6450.0 secs   av.it.:  19.0
      thresh= 2.734E-04 alpha_mix =  0.700 |ddv_scf|^2 =  1.298E-07

      iter #   6 total cpu time :  6550.1 secs   av.it.:  19.5
      thresh= 3.603E-05 alpha_mix =  0.700 |ddv_scf|^2 =  4.213E-09

      iter #   7 total cpu time :  6640.0 secs   av.it.:  17.7
      thresh= 6.491E-06 alpha_mix =  0.700 |ddv_scf|^2 =  3.102E-10

      iter #   8 total cpu time :  6725.5 secs   av.it.:  17.3
      thresh= 1.761E-06 alpha_mix =  0.700 |ddv_scf|^2 =  1.657E-10

      iter #   9 total cpu time :  6798.6 secs   av.it.:  14.4
      thresh= 1.287E-06 alpha_mix =  0.700 |ddv_scf|^2 =  6.946E-12

      iter #  10 total cpu time :  6887.2 secs   av.it.:  18.0
      thresh= 2.636E-07 alpha_mix =  0.700 |ddv_scf|^2 =  1.257E-12

      iter #  11 total cpu time :  6975.7 secs   av.it.:  18.0
      thresh= 1.121E-07 alpha_mix =  0.700 |ddv_scf|^2 =  1.266E-14

      iter #  12 total cpu time :  7074.4 secs   av.it.:  20.3
      thresh= 1.125E-08 alpha_mix =  0.700 |ddv_scf|^2 =  1.569E-14

      iter #  13 total cpu time :  7164.9 secs   av.it.:  18.4
      thresh= 1.253E-08 alpha_mix =  0.700 |ddv_scf|^2 =  1.014E-16

     End of self-consistent calculation

     Convergence has been achieved 


     Representation #   4 mode #   4

     Self-consistent Calculation

      iter #   1 total cpu time :  7212.7 secs   av.it.:   7.4
      thresh= 1.000E-02 alpha_mix =  0.700 |ddv_scf|^2 =  2.579E-05

      iter #   2 total cpu time :  7298.6 secs   av.it.:  18.3
      thresh= 5.079E-04 alpha_mix =  0.700 |ddv_scf|^2 =  2.732E-03

      iter #   3 total cpu time :  7364.6 secs   av.it.:  13.5
      thresh= 5.227E-03 alpha_mix =  0.700 |ddv_scf|^2 =  1.891E-07

      iter #   4 total cpu time :  7456.8 secs   av.it.:  19.8
      thresh= 4.349E-05 alpha_mix =  0.700 |ddv_scf|^2 =  9.704E-08

      iter #   5 total cpu time :  7545.0 secs   av.it.:  18.9
      thresh= 3.115E-05 alpha_mix =  0.700 |ddv_scf|^2 =  4.248E-09

      iter #   6 total cpu time :  7629.1 secs   av.it.:  18.0
      thresh= 6.518E-06 alpha_mix =  0.700 |ddv_scf|^2 =  2.280E-11

      iter #   7 total cpu time :  7714.6 secs   av.it.:  18.3
      thresh= 4.775E-07 alpha_mix =  0.700 |ddv_scf|^2 =  1.934E-12

      iter #   8 total cpu time :  7803.2 secs   av.it.:  19.0
      thresh= 1.391E-07 alpha_mix =  0.700 |ddv_scf|^2 =  6.344E-11

      iter #   9 total cpu time :  7872.4 secs   av.it.:  14.3
      thresh= 7.965E-07 alpha_mix =  0.700 |ddv_scf|^2 =  6.018E-13

      iter #  10 total cpu time :  7954.0 secs   av.it.:  17.4
      thresh= 7.757E-08 alpha_mix =  0.700 |ddv_scf|^2 =  4.326E-14

      iter #  11 total cpu time :  8037.2 secs   av.it.:  17.8
      thresh= 2.080E-08 alpha_mix =  0.700 |ddv_scf|^2 =  4.554E-16

     End of self-consistent calculation

     Convergence has been achieved 


     Representation #   5 mode #   5

     Self-consistent Calculation

      iter #   1 total cpu time :  8078.7 secs   av.it.:   6.0
      thresh= 1.000E-02 alpha_mix =  0.700 |ddv_scf|^2 =  8.222E-09

      iter #   2 total cpu time :  8165.4 secs   av.it.:  18.6
      thresh= 9.068E-06 alpha_mix =  0.700 |ddv_scf|^2 =  1.418E-10

      iter #   3 total cpu time :  8254.9 secs   av.it.:  19.2
      thresh= 1.191E-06 alpha_mix =  0.700 |ddv_scf|^2 =  9.050E-12

      iter #   4 total cpu time :  8342.6 secs   av.it.:  18.8
      thresh= 3.008E-07 alpha_mix =  0.700 |ddv_scf|^2 =  6.990E-13

      iter #   5 total cpu time :  8430.7 secs   av.it.:  18.9
      thresh= 8.360E-08 alpha_mix =  0.700 |ddv_scf|^2 =  6.242E-15

     End of self-consistent calculation

     Convergence has been achieved 


     Representation #   6 modes #   6   7

     Self-consistent Calculation

      iter #   1 total cpu time :  8509.2 secs   av.it.:   6.2
      thresh= 1.000E-02 alpha_mix =  0.700 |ddv_scf|^2 =  4.868E-09

      iter #   2 total cpu time :  8698.3 secs   av.it.:  20.5
      thresh= 6.977E-06 alpha_mix =  0.700 |ddv_scf|^2 =  5.513E-10

      iter #   3 total cpu time :  8889.3 secs   av.it.:  20.7
      thresh= 2.348E-06 alpha_mix =  0.700 |ddv_scf|^2 =  6.833E-12

      iter #   4 total cpu time :  9084.8 secs   av.it.:  21.3
      thresh= 2.614E-07 alpha_mix =  0.700 |ddv_scf|^2 =  4.520E-13

      iter #   5 total cpu time :  9277.7 secs   av.it.:  20.8
      thresh= 6.723E-08 alpha_mix =  0.700 |ddv_scf|^2 =  1.618E-14

      iter #   6 total cpu time :  9469.2 secs   av.it.:  20.6
      thresh= 1.272E-08 alpha_mix =  0.700 |ddv_scf|^2 =  8.129E-17

     End of self-consistent calculation

     Convergence has been achieved 


     Representation #   7 modes #   8   9

     Self-consistent Calculation

      iter #   1 total cpu time :  9557.9 secs   av.it.:   6.7
      thresh= 1.000E-02 alpha_mix =  0.700 |ddv_scf|^2 =  7.279E-09

      iter #   2 total cpu time :  9750.6 secs   av.it.:  20.8
      thresh= 8.532E-06 alpha_mix =  0.700 |ddv_scf|^2 =  8.237E-10

      iter #   3 total cpu time :  9943.1 secs   av.it.:  20.7
      thresh= 2.870E-06 alpha_mix =  0.700 |ddv_scf|^2 =  9.780E-12

      iter #   4 total cpu time : 10139.2 secs   av.it.:  21.1
      thresh= 3.127E-07 alpha_mix =  0.700 |ddv_scf|^2 =  4.697E-13

      iter #   5 total cpu time : 10329.3 secs   av.it.:  20.7
      thresh= 6.853E-08 alpha_mix =  0.700 |ddv_scf|^2 =  1.656E-14

      iter #   6 total cpu time : 10510.2 secs   av.it.:  20.5
      thresh= 1.287E-08 alpha_mix =  0.700 |ddv_scf|^2 =  1.050E-16

     End of self-consistent calculation

     Convergence has been achieved 


     Representation #   8 modes #  10  11

     Self-consistent Calculation

      iter #   1 total cpu time : 10625.9 secs   av.it.:  10.5
      thresh= 1.000E-02 alpha_mix =  0.700 |ddv_scf|^2 =  5.559E-07

      iter #   2 total cpu time : 10807.5 secs   av.it.:  20.6
      thresh= 7.456E-05 alpha_mix =  0.700 |ddv_scf|^2 =  7.753E-08

      iter #   3 total cpu time : 10988.9 secs   av.it.:  20.6
      thresh= 2.785E-05 alpha_mix =  0.700 |ddv_scf|^2 =  1.682E-10

      iter #   4 total cpu time : 11175.7 secs   av.it.:  21.1
      thresh= 1.297E-06 alpha_mix =  0.700 |ddv_scf|^2 =  1.339E-11

      iter #   5 total cpu time : 11362.8 secs   av.it.:  21.0
      thresh= 3.659E-07 alpha_mix =  0.700 |ddv_scf|^2 =  1.618E-13

      iter #   6 total cpu time : 11547.1 secs   av.it.:  20.9
      thresh= 4.022E-08 alpha_mix =  0.700 |ddv_scf|^2 =  3.337E-15

     End of self-consistent calculation

     Convergence has been achieved 


     Representation #   9 modes #  12  13

     Self-consistent Calculation

      iter #   1 total cpu time : 11626.3 secs   av.it.:   6.1
      thresh= 1.000E-02 alpha_mix =  0.700 |ddv_scf|^2 =  4.352E-09

      iter #   2 total cpu time : 11808.1 secs   av.it.:  20.6
      thresh= 6.597E-06 alpha_mix =  0.700 |ddv_scf|^2 =  3.630E-10

      iter #   3 total cpu time : 11991.9 secs   av.it.:  20.9
      thresh= 1.905E-06 alpha_mix =  0.700 |ddv_scf|^2 =  1.396E-11

      iter #   4 total cpu time : 12175.9 secs   av.it.:  20.9
      thresh= 3.737E-07 alpha_mix =  0.700 |ddv_scf|^2 =  2.414E-13

      iter #   5 total cpu time : 12357.1 secs   av.it.:  20.6
      thresh= 4.913E-08 alpha_mix =  0.700 |ddv_scf|^2 =  8.424E-15

     End of self-consistent calculation

     Convergence has been achieved 


     Representation #  10 modes #  14  15

     Self-consistent Calculation

      iter #   1 total cpu time : 12478.2 secs   av.it.:  11.2
      thresh= 1.000E-02 alpha_mix =  0.700 |ddv_scf|^2 =  7.239E-07

      iter #   2 total cpu time : 12660.5 secs   av.it.:  20.6
      thresh= 8.508E-05 alpha_mix =  0.700 |ddv_scf|^2 =  1.176E-07

      iter #   3 total cpu time : 12844.7 secs   av.it.:  20.6
      thresh= 3.429E-05 alpha_mix =  0.700 |ddv_scf|^2 =  3.932E-10

      iter #   4 total cpu time : 13031.4 secs   av.it.:  21.0
      thresh= 1.983E-06 alpha_mix =  0.700 |ddv_scf|^2 =  2.633E-11

      iter #   5 total cpu time : 13212.4 secs   av.it.:  20.3
      thresh= 5.131E-07 alpha_mix =  0.700 |ddv_scf|^2 =  2.279E-13

      iter #   6 total cpu time : 13395.0 secs   av.it.:  20.5
      thresh= 4.774E-08 alpha_mix =  0.700 |ddv_scf|^2 =  2.032E-15

     End of self-consistent calculation

     Convergence has been achieved 

     Number of q in the star =    6
     List of q in the star:
          1   0.000000000   0.000000000   0.250000000
          2   0.000000000   0.250000000   0.000000000
          3   0.000000000   0.000000000  -0.250000000
          4   0.000000000  -0.250000000   0.000000000
          5   0.250000000   0.000000000   0.000000000
          6  -0.250000000   0.000000000   0.000000000

     Diagonalizing the dynamical matrix

     q = (    0.000000000   0.000000000   0.250000000 ) 

 **************************************************************************
     freq (    1) =       0.946752 [THz] =      31.580260 [cm-1]
     freq (    2) =       0.946752 [THz] =      31.580260 [cm-1]
     freq (    3) =       3.149783 [THz] =     105.065466 [cm-1]
     freq (    4) =       4.560308 [THz] =     152.115512 [cm-1]
     freq (    5) =       4.560308 [THz] =     152.115512 [cm-1]
     freq (    6) =       5.720591 [THz] =     190.818369 [cm-1]
     freq (    7) =      13.252790 [THz] =     442.065501 [cm-1]
     freq (    8) =      13.252790 [THz] =     442.065501 [cm-1]
     freq (    9) =      14.992843 [THz] =     500.107427 [cm-1]
     freq (   10) =      14.992843 [THz] =     500.107427 [cm-1]
     freq (   11) =      15.566786 [THz] =     519.252090 [cm-1]
     freq (   12) =      15.833220 [THz] =     528.139369 [cm-1]
     freq (   13) =      44.897688 [THz] =    1497.625665 [cm-1]
     freq (   14) =      46.428567 [THz] =    1548.690310 [cm-1]
     freq (   15) =      46.428567 [THz] =    1548.690310 [cm-1]
 **************************************************************************

     Mode symmetry, C_4v (4mm)  point group:

     freq (   1-   2) =         31.6  [cm-1]   --> E    G_5 D_5       
     freq (   3-   3) =        105.1  [cm-1]   --> A_1  G_1 D_1       
     freq (   4-   5) =        152.1  [cm-1]   --> E    G_5 D_5       
     freq (   6-   6) =        190.8  [cm-1]   --> A_1  G_1 D_1       
     freq (   7-   8) =        442.1  [cm-1]   --> E    G_5 D_5       
     freq (   9-  10) =        500.1  [cm-1]   --> E    G_5 D_5       
     freq (  11-  11) =        519.3  [cm-1]   --> A_1  G_1 D_1       
     freq (  12-  12) =        528.1  [cm-1]   --> B_1  G_3 D_2       
     freq (  13-  13) =       1497.6  [cm-1]   --> A_1  G_1 D_1       
     freq (  14-  15) =       1548.7  [cm-1]   --> E    G_5 D_5       

     Gaussian Broadening:   0.005 Ry, ngauss=   0
     DOS =  8.782062 states/spin/Ry/Unit Cell at Ef= 13.322186 eV
     double delta at Ef =299.770906
     lambda(    1)=  0.1657   gamma=    1.25 GHz
     lambda(    2)=  0.1657   gamma=    1.25 GHz
     lambda(    3)=  0.0273   gamma=    2.28 GHz
     lambda(    4)=  0.0211   gamma=    3.69 GHz
     lambda(    5)=  0.0211   gamma=    3.69 GHz
     lambda(    6)=  0.1255   gamma=   34.46 GHz
     lambda(    7)=  0.0196   gamma=   28.89 GHz
     lambda(    8)=  0.0196   gamma=   28.89 GHz
     lambda(    9)=  0.0708   gamma=  133.38 GHz
     lambda(   10)=  0.0708   gamma=  133.38 GHz
     lambda(   11)=  0.2127   gamma=  432.24 GHz
     lambda(   12)=  0.0794   gamma=  167.01 GHz
     lambda(   13)=  0.0062   gamma=  105.20 GHz
     lambda(   14)=  0.0001   gamma=    2.17 GHz
     lambda(   15)=  0.0001   gamma=    2.17 GHz

     Gaussian Broadening:   0.010 Ry, ngauss=   0
     DOS =  4.910104 states/spin/Ry/Unit Cell at Ef= 13.292525 eV
     double delta at Ef =107.389250
     lambda(    1)=  0.1063   gamma=    0.45 GHz
     lambda(    2)=  0.1063   gamma=    0.45 GHz
     lambda(    3)=  0.0201   gamma=    0.93 GHz
     lambda(    4)=  0.0170   gamma=    1.65 GHz
     lambda(    5)=  0.0170   gamma=    1.65 GHz
     lambda(    6)=  0.0788   gamma=   12.09 GHz
     lambda(    7)=  0.0138   gamma=   11.38 GHz
     lambda(    8)=  0.0138   gamma=   11.38 GHz
     lambda(    9)=  0.0392   gamma=   41.32 GHz
     lambda(   10)=  0.0392   gamma=   41.32 GHz
     lambda(   11)=  0.1496   gamma=  170.02 GHz
     lambda(   12)=  0.0539   gamma=   63.40 GHz
     lambda(   13)=  0.0061   gamma=   57.68 GHz
     lambda(   14)=  0.0003   gamma=    2.58 GHz
     lambda(   15)=  0.0003   gamma=    2.58 GHz

     Gaussian Broadening:   0.015 Ry, ngauss=   0
     DOS =  3.982120 states/spin/Ry/Unit Cell at Ef= 13.264305 eV
     double delta at Ef = 72.711363
     lambda(    1)=  0.1178   gamma=    0.40 GHz
     lambda(    2)=  0.1178   gamma=    0.40 GHz
     lambda(    3)=  0.0353   gamma=    1.33 GHz
     lambda(    4)=  0.0137   gamma=    1.08 GHz
     lambda(    5)=  0.0137   gamma=    1.08 GHz
     lambda(    6)=  0.0579   gamma=    7.21 GHz
     lambda(    7)=  0.0207   gamma=   13.85 GHz
     lambda(    8)=  0.0207   gamma=   13.85 GHz
     lambda(    9)=  0.0423   gamma=   36.13 GHz
     lambda(   10)=  0.0423   gamma=   36.13 GHz
     lambda(   11)=  0.1781   gamma=  164.11 GHz
     lambda(   12)=  0.0810   gamma=   77.19 GHz
     lambda(   13)=  0.0153   gamma=  117.63 GHz
     lambda(   14)=  0.0008   gamma=    6.85 GHz
     lambda(   15)=  0.0008   gamma=    6.85 GHz

     Gaussian Broadening:   0.020 Ry, ngauss=   0
     DOS =  4.362154 states/spin/Ry/Unit Cell at Ef= 13.253272 eV
     double delta at Ef = 73.858184
     lambda(    1)=  0.1480   gamma=    0.55 GHz
     lambda(    2)=  0.1480   gamma=    0.55 GHz
     lambda(    3)=  0.0437   gamma=    1.81 GHz
     lambda(    4)=  0.0144   gamma=    1.25 GHz
     lambda(    5)=  0.0144   gamma=    1.25 GHz
     lambda(    6)=  0.0528   gamma=    7.19 GHz
     lambda(    7)=  0.0289   gamma=   21.17 GHz
     lambda(    8)=  0.0289   gamma=   21.17 GHz
     lambda(    9)=  0.0539   gamma=   50.44 GHz
     lambda(   10)=  0.0539   gamma=   50.44 GHz
     lambda(   11)=  0.1927   gamma=  194.54 GHz
     lambda(   12)=  0.0940   gamma=   98.20 GHz
     lambda(   13)=  0.0174   gamma=  146.09 GHz
     lambda(   14)=  0.0010   gamma=    9.38 GHz
     lambda(   15)=  0.0010   gamma=    9.38 GHz

     Gaussian Broadening:   0.025 Ry, ngauss=   0
     DOS =  4.717821 states/spin/Ry/Unit Cell at Ef= 13.251172 eV
     double delta at Ef = 77.233476
     lambda(    1)=  0.1733   gamma=    0.70 GHz
     lambda(    2)=  0.1733   gamma=    0.70 GHz
     lambda(    3)=  0.0429   gamma=    1.92 GHz
     lambda(    4)=  0.0180   gamma=    1.68 GHz
     lambda(    5)=  0.0180   gamma=    1.68 GHz
     lambda(    6)=  0.0557   gamma=    8.21 GHz
     lambda(    7)=  0.0363   gamma=   28.72 GHz
     lambda(    8)=  0.0363   gamma=   28.72 GHz
     lambda(    9)=  0.0608   gamma=   61.60 GHz
     lambda(   10)=  0.0608   gamma=   61.60 GHz
     lambda(   11)=  0.1905   gamma=  207.98 GHz
     lambda(   12)=  0.0926   gamma=  104.62 GHz
     lambda(   13)=  0.0164   gamma=  148.87 GHz
     lambda(   14)=  0.0012   gamma=   12.01 GHz
     lambda(   15)=  0.0012   gamma=   12.01 GHz

     Gaussian Broadening:   0.030 Ry, ngauss=   0
     DOS =  4.915863 states/spin/Ry/Unit Cell at Ef= 13.253767 eV
     double delta at Ef = 81.226926
     lambda(    1)=  0.2007   gamma=    0.84 GHz
     lambda(    2)=  0.2007   gamma=    0.84 GHz
     lambda(    3)=  0.0404   gamma=    1.88 GHz
     lambda(    4)=  0.0233   gamma=    2.27 GHz
     lambda(    5)=  0.0233   gamma=    2.27 GHz
     lambda(    6)=  0.0607   gamma=    9.32 GHz
     lambda(    7)=  0.0454   gamma=   37.41 GHz
     lambda(    8)=  0.0454   gamma=   37.41 GHz
     lambda(    9)=  0.0681   gamma=   71.89 GHz
     lambda(   10)=  0.0681   gamma=   71.89 GHz
     lambda(   11)=  0.1866   gamma=  212.22 GHz
     lambda(   12)=  0.0893   gamma=  105.09 GHz
     lambda(   13)=  0.0154   gamma=  145.43 GHz
     lambda(   14)=  0.0015   gamma=   15.55 GHz
     lambda(   15)=  0.0015   gamma=   15.55 GHz

     Gaussian Broadening:   0.035 Ry, ngauss=   0
     DOS =  5.030051 states/spin/Ry/Unit Cell at Ef= 13.259197 eV
     double delta at Ef = 87.107675
     lambda(    1)=  0.2331   gamma=    1.00 GHz
     lambda(    2)=  0.2331   gamma=    1.00 GHz
     lambda(    3)=  0.0380   gamma=    1.81 GHz
     lambda(    4)=  0.0304   gamma=    3.03 GHz
     lambda(    5)=  0.0304   gamma=    3.03 GHz
     lambda(    6)=  0.0657   gamma=   10.33 GHz
     lambda(    7)=  0.0572   gamma=   48.30 GHz
     lambda(    8)=  0.0572   gamma=   48.30 GHz
     lambda(    9)=  0.0780   gamma=   84.22 GHz
     lambda(   10)=  0.0780   gamma=   84.22 GHz
     lambda(   11)=  0.1829   gamma=  212.87 GHz
     lambda(   12)=  0.0869   gamma=  104.70 GHz
     lambda(   13)=  0.0147   gamma=  142.47 GHz
     lambda(   14)=  0.0019   gamma=   19.76 GHz
     lambda(   15)=  0.0019   gamma=   19.76 GHz

     Gaussian Broadening:   0.040 Ry, ngauss=   0
     DOS =  5.159714 states/spin/Ry/Unit Cell at Ef= 13.264657 eV
     double delta at Ef = 94.703891
     lambda(    1)=  0.2647   gamma=    1.17 GHz
     lambda(    2)=  0.2647   gamma=    1.17 GHz
     lambda(    3)=  0.0360   gamma=    1.76 GHz
     lambda(    4)=  0.0383   gamma=    3.92 GHz
     lambda(    5)=  0.0383   gamma=    3.92 GHz
     lambda(    6)=  0.0697   gamma=   11.23 GHz
     lambda(    7)=  0.0704   gamma=   60.94 GHz
     lambda(    8)=  0.0704   gamma=   60.94 GHz
     lambda(    9)=  0.0888   gamma=   98.36 GHz
     lambda(   10)=  0.0888   gamma=   98.36 GHz
     lambda(   11)=  0.1780   gamma=  212.49 GHz
     lambda(   12)=  0.0854   gamma=  105.44 GHz
     lambda(   13)=  0.0143   gamma=  142.04 GHz
     lambda(   14)=  0.0023   gamma=   24.12 GHz
     lambda(   15)=  0.0023   gamma=   24.12 GHz

     Gaussian Broadening:   0.045 Ry, ngauss=   0
     DOS =  5.343592 states/spin/Ry/Unit Cell at Ef= 13.267582 eV
     double delta at Ef =102.739215
     lambda(    1)=  0.2889   gamma=    1.32 GHz
     lambda(    2)=  0.2889   gamma=    1.32 GHz
     lambda(    3)=  0.0343   gamma=    1.74 GHz
     lambda(    4)=  0.0458   gamma=    4.86 GHz
     lambda(    5)=  0.0458   gamma=    4.86 GHz
     lambda(    6)=  0.0722   gamma=   12.06 GHz
     lambda(    7)=  0.0825   gamma=   73.96 GHz
     lambda(    8)=  0.0825   gamma=   73.96 GHz
     lambda(    9)=  0.0980   gamma=  112.38 GHz
     lambda(   10)=  0.0980   gamma=  112.38 GHz
     lambda(   11)=  0.1715   gamma=  212.01 GHz
     lambda(   12)=  0.0841   gamma=  107.62 GHz
     lambda(   13)=  0.0140   gamma=  143.97 GHz
     lambda(   14)=  0.0026   gamma=   28.17 GHz
     lambda(   15)=  0.0026   gamma=   28.17 GHz

     Gaussian Broadening:   0.050 Ry, ngauss=   0
     DOS =  5.567861 states/spin/Ry/Unit Cell at Ef= 13.266760 eV
     double delta at Ef =109.986408
     lambda(    1)=  0.3036   gamma=    1.45 GHz
     lambda(    2)=  0.3036   gamma=    1.45 GHz
     lambda(    3)=  0.0328   gamma=    1.73 GHz
     lambda(    4)=  0.0520   gamma=    5.75 GHz
     lambda(    5)=  0.0520   gamma=    5.75 GHz
     lambda(    6)=  0.0736   gamma=   12.81 GHz
     lambda(    7)=  0.0922   gamma=   86.08 GHz
     lambda(    8)=  0.0922   gamma=   86.08 GHz
     lambda(    9)=  0.1043   gamma=  124.67 GHz
     lambda(   10)=  0.1043   gamma=  124.67 GHz
     lambda(   11)=  0.1642   gamma=  211.60 GHz
     lambda(   12)=  0.0832   gamma=  110.88 GHz
     lambda(   13)=  0.0137   gamma=  147.27 GHz
     lambda(   14)=  0.0028   gamma=   31.67 GHz
     lambda(   15)=  0.0028   gamma=   31.67 GHz

     Calculation of q =    0.0000000   0.0000000  -0.5000000

     Parallelization info
     --------------------
     sticks:   dense  smooth     PW     G-vecs:    dense   smooth      PW
     Min         298     150     46                10923     3878     686
     Max         299     151     47                10924     3881     689
     Sum        2385    1201    373                87391    31031    5497


     Title: 
     CaAuH3 phonon + electron-phonon 4x4x4 q (RTSC A11 · SrAuH3 Ca-variant · p


     bravais-lattice index     =            1
     lattice parameter (alat)  =       6.8361  a.u.
     unit-cell volume          =     319.4664 (a.u.)^3
     number of atoms/cell      =            5
     number of atomic types    =            3
     number of electrons       =        24.00
     number of Kohn-Sham states=           16
     kinetic-energy cutoff     =      80.0000  Ry
     charge density cutoff     =     640.0000  Ry
     Exchange-correlation= PBE
                           (   1   4   3   4   0   0   0)

     celldm(1)=   6.836100  celldm(2)=   0.000000  celldm(3)=   0.000000
     celldm(4)=   0.000000  celldm(5)=   0.000000  celldm(6)=   0.000000

     crystal axes: (cart. coord. in units of alat)
               a(1) = (   1.000000   0.000000   0.000000 )  
               a(2) = (   0.000000   1.000000   0.000000 )  
               a(3) = (   0.000000   0.000000   1.000000 )  

     reciprocal axes: (cart. coord. in units 2 pi/alat)
               b(1) = (  1.000000  0.000000  0.000000 )  
               b(2) = (  0.000000  1.000000  0.000000 )  
               b(3) = (  0.000000  0.000000  1.000000 )  


     PseudoPot. # 1 for Ca read from file:
     ./pseudo/Ca.pbe-spn-rrkjus_psl.1.0.0.UPF
     MD5 check sum: be476cbee6758b394af5fd17922f3fca
     Pseudo is Ultrasoft + core correction, Zval = 10.0
     Generated using &quot;atomic&quot; code by A. Dal Corso  v.6.2.2
     Using radial grid of 1169 points,  6 beta functions with: 
                l(1) =   0
                l(2) =   0
                l(3) =   1
                l(4) =   1
                l(5) =   2
                l(6) =   2
     Q(r) pseudized with 0 coefficients 


     PseudoPot. # 2 for Au read from file:
     ./pseudo/Au.pbe-n-rrkjus_psl.1.0.0.UPF
     MD5 check sum: d7e77ba19504afed2c9b41c931dde4f0
     Pseudo is Ultrasoft + core correction, Zval = 11.0
     Generated using &quot;atomic&quot; code by A. Dal Corso  v.6.3
     Using radial grid of 1279 points,  6 beta functions with: 
                l(1) =   0
                l(2) =   0
                l(3) =   1
                l(4) =   1
                l(5) =   2
                l(6) =   2
     Q(r) pseudized with 0 coefficients 


     PseudoPot. # 3 for H  read from file:
     ./pseudo/H.pbe-rrkjus_psl.1.0.0.UPF
     MD5 check sum: 3f4114867bd07edc7f1424d066fc1888
     Pseudo is Ultrasoft, Zval =  1.0
     Generated using &quot;atomic&quot; code by A. Dal Corso  v.6.3MaX
     Using radial grid of  929 points,  2 beta functions with: 
                l(1) =   0
                l(2) =   0
     Q(r) pseudized with 0 coefficients 


     atomic species   valence    mass     pseudopotential
        Ca            10.00    40.07800     Ca( 1.00)
        Au            11.00   196.96700     Au( 1.00)
        H              1.00     1.00800     H ( 1.00)

     48 Sym. Ops., with inversion, found



   Cartesian axes

     site n.     atom                  positions (alat units)
         1           Ca  tau(   1) = (   0.5000000   0.5000000   0.5000000  )
         2           Au  tau(   2) = (  -0.0000000  -0.0000000  -0.0000000  )
         3           H   tau(   3) = (   0.5000000   0.0000000   0.0000000  )
         4           H   tau(   4) = (   0.0000000   0.5000000   0.0000000  )
         5           H   tau(   5) = (   0.0000000   0.0000000   0.5000000  )

     number of k points=   810  Methfessel-Paxton smearing, width (Ry)=  0.0200

     Number of k-points >= 100: set verbosity='high' to print them.

     Dense  grid:    87391 G-vectors     FFT dimensions: (  60,  60,  60)

     Smooth grid:    31031 G-vectors     FFT dimensions: (  40,  40,  40)

     Estimated max dynamical RAM per process >      42.22 MB

     Estimated total dynamical RAM >     337.78 MB

     The potential is recalculated from file :
     ./out/_ph0/caauh3.q_3/caauh3.save/charge-density

     Starting wfcs are   20 atomic wfcs

     Band Structure Calculation
     Davidson diagonalization with overlap
     c_bands:  1 eigenvalues not converged
     c_bands:  1 eigenvalues not converged
     c_bands:  1 eigenvalues not converged
     c_bands:  1 eigenvalues not converged
     c_bands:  1 eigenvalues not converged
     c_bands:  1 eigenvalues not converged
     c_bands:  1 eigenvalues not converged
     c_bands:  1 eigenvalues not converged
     c_bands:  1 eigenvalues not converged
     c_bands:  1 eigenvalues not converged
     c_bands:  1 eigenvalues not converged
     c_bands:  1 eigenvalues not converged

     ethr =  4.17E-11,  avg # of iterations = 46.8

     total cpu time spent up to now is      883.7 secs

     End of band structure calculation

     Number of k-points >= 100: set verbosity='high' to print the bands.

     the Fermi energy is    13.2533 ev

     Writing output data file ./out/_ph0/caauh3.q_3/caauh3.save/
WARNING(FoX)
emitting non-ASCII character. Platform-dependent result!
WARNING(FoX)
emitting non-ASCII character. Platform-dependent result!
WARNING(FoX)
emitting non-ASCII character. Platform-dependent result!
WARNING(FoX)
emitting non-ASCII character. Platform-dependent result!

     CaAuH3 phonon + electron-phonon 4x4x4 q (RTSC A11 · SrAuH3 Ca-variant · p

     bravais-lattice index     =            1
     lattice parameter (alat)  =       6.8361  a.u.
     unit-cell volume          =     319.4664 (a.u.)^3
     number of atoms/cell      =            5
     number of atomic types    =            3
     kinetic-energy cut-off    =      80.0000  Ry
     charge density cut-off    =     640.0000  Ry
     convergence threshold     =      1.0E-14
     beta                      =       0.7000
     number of iterations used =            4
     Exchange-correlation= PBE
                           (   1   4   3   4   0   0   0)


     celldm(1)=    6.83610  celldm(2)=    0.00000  celldm(3)=    0.00000
     celldm(4)=    0.00000  celldm(5)=    0.00000  celldm(6)=    0.00000

     crystal axes: (cart. coord. in units of alat)
               a(1) = (  1.0000  0.0000  0.0000 )  
               a(2) = (  0.0000  1.0000  0.0000 )  
               a(3) = (  0.0000  0.0000  1.0000 )  

     reciprocal axes: (cart. coord. in units 2 pi/alat)
               b(1) = (  1.0000  0.0000  0.0000 )  
               b(2) = (  0.0000  1.0000  0.0000 )  
               b(3) = (  0.0000  0.0000  1.0000 )  


     Atoms inside the unit cell: 

     Cartesian axes

     site n.  atom      mass           positions (alat units)
        1     Ca  40.0780   tau(    1) = (    0.50000    0.50000    0.50000  )
        2     Au 196.9670   tau(    2) = (   -0.00000   -0.00000   -0.00000  )
        3     H    1.0080   tau(    3) = (    0.50000    0.00000    0.00000  )
        4     H    1.0080   tau(    4) = (    0.00000    0.50000    0.00000  )
        5     H    1.0080   tau(    5) = (    0.00000    0.00000    0.50000  )

     Computing dynamical matrix for 
                    q = (   0.0000000   0.0000000  -0.5000000 )

     17 Sym.Ops. (with q -> -q+G )


     G cutoff =  757.5949  (  10924 G-vectors)     FFT grid: ( 60, 60, 60)
     G cutoff =  378.7975  (   3880 G-vectors)  smooth grid: ( 40, 40, 40)

     number of k points=   810  Methfessel-Paxton smearing, width (Ry)=  0.0200

     PseudoPot. # 1 for Ca read from file:
     ./pseudo/Ca.pbe-spn-rrkjus_psl.1.0.0.UPF
     MD5 check sum: be476cbee6758b394af5fd17922f3fca
     Pseudo is Ultrasoft + core correction, Zval = 10.0
     Generated using &quot;atomic&quot; code by A. Dal Corso  v.6.2.2
     Using radial grid of 1169 points,  6 beta functions with: 
                l(1) =   0
                l(2) =   0
                l(3) =   1
                l(4) =   1
                l(5) =   2
                l(6) =   2
     Q(r) pseudized with 0 coefficients 


     PseudoPot. # 2 for Au read from file:
     ./pseudo/Au.pbe-n-rrkjus_psl.1.0.0.UPF
     MD5 check sum: d7e77ba19504afed2c9b41c931dde4f0
     Pseudo is Ultrasoft + core correction, Zval = 11.0
     Generated using &quot;atomic&quot; code by A. Dal Corso  v.6.3
     Using radial grid of 1279 points,  6 beta functions with: 
                l(1) =   0
                l(2) =   0
                l(3) =   1
                l(4) =   1
                l(5) =   2
                l(6) =   2
     Q(r) pseudized with 0 coefficients 


     PseudoPot. # 3 for H  read from file:
     ./pseudo/H.pbe-rrkjus_psl.1.0.0.UPF
     MD5 check sum: 3f4114867bd07edc7f1424d066fc1888
     Pseudo is Ultrasoft, Zval =  1.0
     Generated using &quot;atomic&quot; code by A. Dal Corso  v.6.3MaX
     Using radial grid of  929 points,  2 beta functions with: 
                l(1) =   0
                l(2) =   0
     Q(r) pseudized with 0 coefficients 


     Mode symmetry, D_4h(4/mmm) point group:


     Atomic displacements:
     There are   10 irreducible representations

     Representation     1      1 modes -  To be done

     Representation     2      1 modes -  To be done

     Representation     3      2 modes -  To be done

     Representation     4      2 modes -  To be done

     Representation     5      1 modes -  To be done

     Representation     6      1 modes -  To be done

     Representation     7      1 modes -  To be done

     Representation     8      2 modes -  To be done

     Representation     9      2 modes -  To be done

     Representation    10      2 modes -  To be done



     Alpha used in Ewald sum =   2.8000
     PHONON       :      3h38m CPU      3h47m WALL



     Representation #   1 mode #   1

     Self-consistent Calculation

      iter #   1 total cpu time : 13688.0 secs   av.it.:  12.1
      thresh= 1.000E-02 alpha_mix =  0.700 |ddv_scf|^2 =  9.186E-05

      iter #   2 total cpu time : 13735.8 secs   av.it.:  18.5
      thresh= 9.584E-04 alpha_mix =  0.700 |ddv_scf|^2 =  5.387E-04

      iter #   3 total cpu time : 13778.4 secs   av.it.:  16.2
      thresh= 2.321E-03 alpha_mix =  0.700 |ddv_scf|^2 =  2.332E-06

      iter #   4 total cpu time : 13826.5 secs   av.it.:  18.6
      thresh= 1.527E-04 alpha_mix =  0.700 |ddv_scf|^2 =  8.097E-08

      iter #   5 total cpu time : 13873.5 secs   av.it.:  18.2
      thresh= 2.846E-05 alpha_mix =  0.700 |ddv_scf|^2 =  5.553E-10

      iter #   6 total cpu time : 13921.0 secs   av.it.:  18.5
      thresh= 2.357E-06 alpha_mix =  0.700 |ddv_scf|^2 =  9.238E-12

      iter #   7 total cpu time : 13969.4 secs   av.it.:  18.8
      thresh= 3.039E-07 alpha_mix =  0.700 |ddv_scf|^2 =  1.050E-13

      iter #   8 total cpu time : 14018.0 secs   av.it.:  18.9
      thresh= 3.240E-08 alpha_mix =  0.700 |ddv_scf|^2 =  8.897E-15

     End of self-consistent calculation

     Convergence has been achieved 


     Representation #   2 mode #   2

     Self-consistent Calculation

      iter #   1 total cpu time : 14043.6 secs   av.it.:   7.1
      thresh= 1.000E-02 alpha_mix =  0.700 |ddv_scf|^2 =  9.754E-07

      iter #   2 total cpu time : 14090.9 secs   av.it.:  18.3
      thresh= 9.876E-05 alpha_mix =  0.700 |ddv_scf|^2 =  6.667E-06

      iter #   3 total cpu time : 14133.8 secs   av.it.:  16.4
      thresh= 2.582E-04 alpha_mix =  0.700 |ddv_scf|^2 =  4.783E-09

      iter #   4 total cpu time : 14180.2 secs   av.it.:  17.9
      thresh= 6.916E-06 alpha_mix =  0.700 |ddv_scf|^2 =  5.953E-10

      iter #   5 total cpu time : 14227.0 secs   av.it.:  18.0
      thresh= 2.440E-06 alpha_mix =  0.700 |ddv_scf|^2 =  1.331E-12

      iter #   6 total cpu time : 14276.2 secs   av.it.:  19.1
      thresh= 1.154E-07 alpha_mix =  0.700 |ddv_scf|^2 =  5.507E-14

      iter #   7 total cpu time : 14324.2 secs   av.it.:  18.6
      thresh= 2.347E-08 alpha_mix =  0.700 |ddv_scf|^2 =  1.037E-14

      iter #   8 total cpu time : 14371.5 secs   av.it.:  18.4
      thresh= 1.018E-08 alpha_mix =  0.700 |ddv_scf|^2 =  1.421E-16

     End of self-consistent calculation

     Convergence has been achieved 


     Representation #   3 modes #   3   4

     Self-consistent Calculation

      iter #   1 total cpu time : 14412.6 secs   av.it.:   5.7
      thresh= 1.000E-02 alpha_mix =  0.700 |ddv_scf|^2 =  3.491E-09

      iter #   2 total cpu time : 14513.5 secs   av.it.:  19.8
      thresh= 5.908E-06 alpha_mix =  0.700 |ddv_scf|^2 =  9.796E-11

      iter #   3 total cpu time : 14616.4 secs   av.it.:  20.3
      thresh= 9.898E-07 alpha_mix =  0.700 |ddv_scf|^2 =  8.127E-12

      iter #   4 total cpu time : 14719.9 secs   av.it.:  20.4
      thresh= 2.851E-07 alpha_mix =  0.700 |ddv_scf|^2 =  2.762E-13

      iter #   5 total cpu time : 14822.5 secs   av.it.:  20.2
      thresh= 5.255E-08 alpha_mix =  0.700 |ddv_scf|^2 =  2.119E-15

     End of self-consistent calculation

     Convergence has been achieved 


     Representation #   4 modes #   5   6

     Self-consistent Calculation

      iter #   1 total cpu time : 14889.4 secs   av.it.:  10.6
      thresh= 1.000E-02 alpha_mix =  0.700 |ddv_scf|^2 =  6.418E-07

      iter #   2 total cpu time : 14990.7 secs   av.it.:  19.9
      thresh= 8.011E-05 alpha_mix =  0.700 |ddv_scf|^2 =  7.729E-08

      iter #   3 total cpu time : 15092.2 secs   av.it.:  20.0
      thresh= 2.780E-05 alpha_mix =  0.700 |ddv_scf|^2 =  1.961E-10

      iter #   4 total cpu time : 15194.3 secs   av.it.:  20.0
      thresh= 1.400E-06 alpha_mix =  0.700 |ddv_scf|^2 =  9.362E-13

      iter #   5 total cpu time : 15294.9 secs   av.it.:  19.7
      thresh= 9.676E-08 alpha_mix =  0.700 |ddv_scf|^2 =  1.353E-14

      iter #   6 total cpu time : 15394.7 secs   av.it.:  19.5
      thresh= 1.163E-08 alpha_mix =  0.700 |ddv_scf|^2 =  2.260E-16

     End of self-consistent calculation

     Convergence has been achieved 


     Representation #   5 mode #   7

     Self-consistent Calculation

      iter #   1 total cpu time : 15423.9 secs   av.it.:   7.3
      thresh= 1.000E-02 alpha_mix =  0.700 |ddv_scf|^2 =  3.445E-06

      iter #   2 total cpu time : 15472.2 secs   av.it.:  18.7
      thresh= 1.856E-04 alpha_mix =  0.700 |ddv_scf|^2 =  3.403E-05

      iter #   3 total cpu time : 15515.3 secs   av.it.:  16.6
      thresh= 5.833E-04 alpha_mix =  0.700 |ddv_scf|^2 =  6.897E-10

      iter #   4 total cpu time : 15564.0 secs   av.it.:  18.9
      thresh= 2.626E-06 alpha_mix =  0.700 |ddv_scf|^2 =  7.577E-11

      iter #   5 total cpu time : 15610.7 secs   av.it.:  18.1
      thresh= 8.705E-07 alpha_mix =  0.700 |ddv_scf|^2 =  1.585E-12

      iter #   6 total cpu time : 15658.6 secs   av.it.:  18.6
      thresh= 1.259E-07 alpha_mix =  0.700 |ddv_scf|^2 =  3.020E-14

      iter #   7 total cpu time : 15705.3 secs   av.it.:  18.0
      thresh= 1.738E-08 alpha_mix =  0.700 |ddv_scf|^2 =  8.221E-16

     End of self-consistent calculation

     Convergence has been achieved 


     Representation #   6 mode #   8

     Self-consistent Calculation

      iter #   1 total cpu time : 15741.6 secs   av.it.:  11.7
      thresh= 1.000E-02 alpha_mix =  0.700 |ddv_scf|^2 =  1.765E-04

      iter #   2 total cpu time : 15790.0 secs   av.it.:  18.9
      thresh= 1.329E-03 alpha_mix =  0.700 |ddv_scf|^2 =  1.716E-03

      iter #   3 total cpu time : 15833.0 secs   av.it.:  16.5
      thresh= 4.143E-03 alpha_mix =  0.700 |ddv_scf|^2 =  2.577E-07

      iter #   4 total cpu time : 15882.1 secs   av.it.:  19.1
      thresh= 5.077E-05 alpha_mix =  0.700 |ddv_scf|^2 =  1.685E-08

      iter #   5 total cpu time : 15928.0 secs   av.it.:  17.8
      thresh= 1.298E-05 alpha_mix =  0.700 |ddv_scf|^2 =  5.897E-11

      iter #   6 total cpu time : 15976.2 secs   av.it.:  18.7
      thresh= 7.679E-07 alpha_mix =  0.700 |ddv_scf|^2 =  1.815E-12

      iter #   7 total cpu time : 16021.6 secs   av.it.:  17.5
      thresh= 1.347E-07 alpha_mix =  0.700 |ddv_scf|^2 =  1.473E-14

      iter #   8 total cpu time : 16068.2 secs   av.it.:  18.1
      thresh= 1.213E-08 alpha_mix =  0.700 |ddv_scf|^2 =  1.024E-15

     End of self-consistent calculation

     Convergence has been achieved 


     Representation #   7 mode #   9

     Self-consistent Calculation

      iter #   1 total cpu time : 16090.8 secs   av.it.:   5.8
      thresh= 1.000E-02 alpha_mix =  0.700 |ddv_scf|^2 =  1.072E-08

      iter #   2 total cpu time : 16136.9 secs   av.it.:  17.9
      thresh= 1.036E-05 alpha_mix =  0.700 |ddv_scf|^2 =  7.149E-11

      iter #   3 total cpu time : 16183.5 secs   av.it.:  18.0
      thresh= 8.455E-07 alpha_mix =  0.700 |ddv_scf|^2 =  5.137E-12

      iter #   4 total cpu time : 16229.1 secs   av.it.:  17.7
      thresh= 2.266E-07 alpha_mix =  0.700 |ddv_scf|^2 =  3.411E-14

      iter #   5 total cpu time : 16276.7 secs   av.it.:  18.5
      thresh= 1.847E-08 alpha_mix =  0.700 |ddv_scf|^2 =  3.313E-16

     End of self-consistent calculation

     Convergence has been achieved 


     Representation #   8 modes #  10  11

     Self-consistent Calculation

      iter #   1 total cpu time : 16316.6 secs   av.it.:   5.5
      thresh= 1.000E-02 alpha_mix =  0.700 |ddv_scf|^2 =  4.039E-09

      iter #   2 total cpu time : 16415.1 secs   av.it.:  19.3
      thresh= 6.355E-06 alpha_mix =  0.700 |ddv_scf|^2 =  3.534E-10

      iter #   3 total cpu time : 16515.8 secs   av.it.:  19.8
      thresh= 1.880E-06 alpha_mix =  0.700 |ddv_scf|^2 =  4.051E-12

      iter #   4 total cpu time : 16615.2 secs   av.it.:  19.5
      thresh= 2.013E-07 alpha_mix =  0.700 |ddv_scf|^2 =  8.380E-14

      iter #   5 total cpu time : 16711.7 secs   av.it.:  18.9
      thresh= 2.895E-08 alpha_mix =  0.700 |ddv_scf|^2 =  4.767E-16

     End of self-consistent calculation

     Convergence has been achieved 


     Representation #   9 modes #  12  13

     Self-consistent Calculation

      iter #   1 total cpu time : 16759.3 secs   av.it.:   6.5
[...]
     lambda(    6)=  0.0689   gamma=   14.96 GHz
     lambda(    7)=  0.0365   gamma=    8.68 GHz
     lambda(    8)=  0.0363   gamma=   30.47 GHz
     lambda(    9)=  0.0819   gamma=   86.70 GHz
     lambda(   10)=  0.1287   gamma=  145.03 GHz
     lambda(   11)=  0.0659   gamma=   91.66 GHz
     lambda(   12)=  0.0602   gamma=  112.85 GHz
     lambda(   13)=  0.0288   gamma=  230.03 GHz
     lambda(   14)=  0.0039   gamma=   41.11 GHz
     lambda(   15)=  0.0149   gamma=  158.88 GHz

     Gaussian Broadening:   0.045 Ry, ngauss=   0
     DOS =  5.343592 states/spin/Ry/Unit Cell at Ef= 13.267582 eV
     double delta at Ef = 84.751399
     lambda(    1)=  0.1901   gamma=    0.95 GHz
     lambda(    2)=  0.0361   gamma=    1.22 GHz
     lambda(    3)=  0.0940   gamma=    5.83 GHz
     lambda(    4)=  0.0584   gamma=    6.23 GHz
     lambda(    5)=  0.3547   gamma=   46.38 GHz
     lambda(    6)=  0.0857   gamma=   19.28 GHz
     lambda(    7)=  0.0419   gamma=   10.30 GHz
     lambda(    8)=  0.0433   gamma=   37.63 GHz
     lambda(    9)=  0.0877   gamma=   96.09 GHz
     lambda(   10)=  0.1304   gamma=  152.15 GHz
     lambda(   11)=  0.0708   gamma=  101.93 GHz
     lambda(   12)=  0.0618   gamma=  119.96 GHz
     lambda(   13)=  0.0284   gamma=  235.15 GHz
     lambda(   14)=  0.0042   gamma=   45.66 GHz
     lambda(   15)=  0.0151   gamma=  167.56 GHz

     Gaussian Broadening:   0.050 Ry, ngauss=   0
     DOS =  5.567861 states/spin/Ry/Unit Cell at Ef= 13.266760 eV
     double delta at Ef = 92.756890
     lambda(    1)=  0.2226   gamma=    1.16 GHz
     lambda(    2)=  0.0383   gamma=    1.35 GHz
     lambda(    3)=  0.0987   gamma=    6.38 GHz
     lambda(    4)=  0.0669   gamma=    7.43 GHz
     lambda(    5)=  0.3763   gamma=   51.26 GHz
     lambda(    6)=  0.0996   gamma=   23.34 GHz
     lambda(    7)=  0.0459   gamma=   11.76 GHz
     lambda(    8)=  0.0492   gamma=   44.56 GHz
     lambda(    9)=  0.0915   gamma=  104.51 GHz
     lambda(   10)=  0.1305   gamma=  158.58 GHz
     lambda(   11)=  0.0732   gamma=  109.76 GHz
     lambda(   12)=  0.0616   gamma=  124.70 GHz
     lambda(   13)=  0.0274   gamma=  236.68 GHz
     lambda(   14)=  0.0043   gamma=   48.94 GHz
     lambda(   15)=  0.0150   gamma=  172.95 GHz

     Calculation of q =    0.0000000  -0.5000000  -0.5000000

     Parallelization info
     --------------------
     sticks:   dense  smooth     PW     G-vecs:    dense   smooth      PW
     Min         298     150     50                10923     3878     752
     Max         299     151     51                10924     3881     755
     Sum        2385    1201    401                87391    31031    6031


     Title: 
     CaAuH3 phonon + electron-phonon 4x4x4 q (RTSC A11 · SrAuH3 Ca-variant · p


     bravais-lattice index     =            1
     lattice parameter (alat)  =       6.8361  a.u.
     unit-cell volume          =     319.4664 (a.u.)^3
     number of atoms/cell      =            5
     number of atomic types    =            3
     number of electrons       =        24.00
     number of Kohn-Sham states=           16
     kinetic-energy cutoff     =      80.0000  Ry
     charge density cutoff     =     640.0000  Ry
     Exchange-correlation= PBE
                           (   1   4   3   4   0   0   0)

     celldm(1)=   6.836100  celldm(2)=   0.000000  celldm(3)=   0.000000
     celldm(4)=   0.000000  celldm(5)=   0.000000  celldm(6)=   0.000000

     crystal axes: (cart. coord. in units of alat)
               a(1) = (   1.000000   0.000000   0.000000 )  
               a(2) = (   0.000000   1.000000   0.000000 )  
               a(3) = (   0.000000   0.000000   1.000000 )  

     reciprocal axes: (cart. coord. in units 2 pi/alat)
               b(1) = (  1.000000  0.000000  0.000000 )  
               b(2) = (  0.000000  1.000000  0.000000 )  
               b(3) = (  0.000000  0.000000  1.000000 )  


     PseudoPot. # 1 for Ca read from file:
     ./pseudo/Ca.pbe-spn-rrkjus_psl.1.0.0.UPF
     MD5 check sum: be476cbee6758b394af5fd17922f3fca
     Pseudo is Ultrasoft + core correction, Zval = 10.0
     Generated using &quot;atomic&quot; code by A. Dal Corso  v.6.2.2
     Using radial grid of 1169 points,  6 beta functions with: 
                l(1) =   0
                l(2) =   0
                l(3) =   1
                l(4) =   1
                l(5) =   2
                l(6) =   2
     Q(r) pseudized with 0 coefficients 


     PseudoPot. # 2 for Au read from file:
     ./pseudo/Au.pbe-n-rrkjus_psl.1.0.0.UPF
     MD5 check sum: d7e77ba19504afed2c9b41c931dde4f0
     Pseudo is Ultrasoft + core correction, Zval = 11.0
     Generated using &quot;atomic&quot; code by A. Dal Corso  v.6.3
     Using radial grid of 1279 points,  6 beta functions with: 
                l(1) =   0
                l(2) =   0
                l(3) =   1
                l(4) =   1
                l(5) =   2
                l(6) =   2
     Q(r) pseudized with 0 coefficients 


     PseudoPot. # 3 for H  read from file:
     ./pseudo/H.pbe-rrkjus_psl.1.0.0.UPF
     MD5 check sum: 3f4114867bd07edc7f1424d066fc1888
     Pseudo is Ultrasoft, Zval =  1.0
     Generated using &quot;atomic&quot; code by A. Dal Corso  v.6.3MaX
     Using radial grid of  929 points,  2 beta functions with: 
                l(1) =   0
                l(2) =   0
     Q(r) pseudized with 0 coefficients 


     atomic species   valence    mass     pseudopotential
        Ca            10.00    40.07800     Ca( 1.00)
        Au            11.00   196.96700     Au( 1.00)
        H              1.00     1.00800     H ( 1.00)

     48 Sym. Ops., with inversion, found



   Cartesian axes

     site n.     atom                  positions (alat units)
         1           Ca  tau(   1) = (   0.5000000   0.5000000   0.5000000  )
         2           Au  tau(   2) = (  -0.0000000  -0.0000000  -0.0000000  )
         3           H   tau(   3) = (   0.5000000   0.0000000   0.0000000  )
         4           H   tau(   4) = (   0.0000000   0.5000000   0.0000000  )
         5           H   tau(   5) = (   0.0000000   0.0000000   0.5000000  )

     number of k points=   810  Methfessel-Paxton smearing, width (Ry)=  0.0200

     Number of k-points >= 100: set verbosity='high' to print them.

     Dense  grid:    87391 G-vectors     FFT dimensions: (  60,  60,  60)

     Smooth grid:    31031 G-vectors     FFT dimensions: (  40,  40,  40)

     Estimated max dynamical RAM per process >      42.27 MB

     Estimated total dynamical RAM >     338.14 MB

     The potential is recalculated from file :
     ./out/_ph0/caauh3.q_6/caauh3.save/charge-density

     Starting wfcs are   20 atomic wfcs

     Band Structure Calculation
     Davidson diagonalization with overlap
     c_bands:  1 eigenvalues not converged
     c_bands:  1 eigenvalues not converged
     c_bands:  1 eigenvalues not converged
     c_bands:  1 eigenvalues not converged
     c_bands:  1 eigenvalues not converged
     c_bands:  1 eigenvalues not converged
     c_bands:  1 eigenvalues not converged
     c_bands:  1 eigenvalues not converged
     c_bands:  1 eigenvalues not converged
     c_bands:  1 eigenvalues not converged
     c_bands:  1 eigenvalues not converged
     c_bands:  1 eigenvalues not converged

     ethr =  4.17E-11,  avg # of iterations = 46.9

     total cpu time spent up to now is     2551.7 secs

     End of band structure calculation

     Number of k-points >= 100: set verbosity='high' to print the bands.

     the Fermi energy is    13.2533 ev

     Writing output data file ./out/_ph0/caauh3.q_6/caauh3.save/
WARNING(FoX)
emitting non-ASCII character. Platform-dependent result!
WARNING(FoX)
emitting non-ASCII character. Platform-dependent result!
WARNING(FoX)
emitting non-ASCII character. Platform-dependent result!
WARNING(FoX)
emitting non-ASCII character. Platform-dependent result!

     CaAuH3 phonon + electron-phonon 4x4x4 q (RTSC A11 · SrAuH3 Ca-variant · p

     bravais-lattice index     =            1
     lattice parameter (alat)  =       6.8361  a.u.
     unit-cell volume          =     319.4664 (a.u.)^3
     number of atoms/cell      =            5
     number of atomic types    =            3
     kinetic-energy cut-off    =      80.0000  Ry
     charge density cut-off    =     640.0000  Ry
     convergence threshold     =      1.0E-14
     beta                      =       0.7000
     number of iterations used =            4
     Exchange-correlation= PBE
                           (   1   4   3   4   0   0   0)


     celldm(1)=    6.83610  celldm(2)=    0.00000  celldm(3)=    0.00000
     celldm(4)=    0.00000  celldm(5)=    0.00000  celldm(6)=    0.00000

     crystal axes: (cart. coord. in units of alat)
               a(1) = (  1.0000  0.0000  0.0000 )  
               a(2) = (  0.0000  1.0000  0.0000 )  
               a(3) = (  0.0000  0.0000  1.0000 )  

     reciprocal axes: (cart. coord. in units 2 pi/alat)
               b(1) = (  1.0000  0.0000  0.0000 )  
               b(2) = (  0.0000  1.0000  0.0000 )  
               b(3) = (  0.0000  0.0000  1.0000 )  


     Atoms inside the unit cell: 

     Cartesian axes

     site n.  atom      mass           positions (alat units)
        1     Ca  40.0780   tau(    1) = (    0.50000    0.50000    0.50000  )
        2     Au 196.9670   tau(    2) = (   -0.00000   -0.00000   -0.00000  )
        3     H    1.0080   tau(    3) = (    0.50000    0.00000    0.00000  )
        4     H    1.0080   tau(    4) = (    0.00000    0.50000    0.00000  )
        5     H    1.0080   tau(    5) = (    0.00000    0.00000    0.50000  )

     Computing dynamical matrix for 
                    q = (   0.0000000  -0.5000000  -0.5000000 )

     17 Sym.Ops. (with q -> -q+G )


     G cutoff =  757.5949  (  10924 G-vectors)     FFT grid: ( 60, 60, 60)
     G cutoff =  378.7975  (   3880 G-vectors)  smooth grid: ( 40, 40, 40)

     number of k points=   810  Methfessel-Paxton smearing, width (Ry)=  0.0200

     PseudoPot. # 1 for Ca read from file:
     ./pseudo/Ca.pbe-spn-rrkjus_psl.1.0.0.UPF
     MD5 check sum: be476cbee6758b394af5fd17922f3fca
     Pseudo is Ultrasoft + core correction, Zval = 10.0
     Generated using &quot;atomic&quot; code by A. Dal Corso  v.6.2.2
     Using radial grid of 1169 points,  6 beta functions with: 
                l(1) =   0
                l(2) =   0
                l(3) =   1
                l(4) =   1
                l(5) =   2
                l(6) =   2
     Q(r) pseudized with 0 coefficients 


     PseudoPot. # 2 for Au read from file:
     ./pseudo/Au.pbe-n-rrkjus_psl.1.0.0.UPF
     MD5 check sum: d7e77ba19504afed2c9b41c931dde4f0
     Pseudo is Ultrasoft + core correction, Zval = 11.0
     Generated using &quot;atomic&quot; code by A. Dal Corso  v.6.3
     Using radial grid of 1279 points,  6 beta functions with: 
                l(1) =   0
                l(2) =   0
                l(3) =   1
                l(4) =   1
                l(5) =   2
                l(6) =   2
     Q(r) pseudized with 0 coefficients 


     PseudoPot. # 3 for H  read from file:
     ./pseudo/H.pbe-rrkjus_psl.1.0.0.UPF
     MD5 check sum: 3f4114867bd07edc7f1424d066fc1888
     Pseudo is Ultrasoft, Zval =  1.0
     Generated using &quot;atomic&quot; code by A. Dal Corso  v.6.3MaX
     Using radial grid of  929 points,  2 beta functions with: 
                l(1) =   0
                l(2) =   0
     Q(r) pseudized with 0 coefficients 


     Mode symmetry, D_4h(4/mmm) point group:


     Atomic displacements:
     There are   11 irreducible representations

     Representation     1      1 modes -  To be done

     Representation     2      1 modes -  To be done

     Representation     3      1 modes -  To be done

     Representation     4      1 modes -  To be done

     Representation     5      2 modes -  To be done

     Representation     6      1 modes -  To be done

     Representation     7      1 modes -  To be done

     Representation     8      1 modes -  To be done

     Representation     9      2 modes -  To be done

     Representation    10      2 modes -  To be done

     Representation    11      2 modes -  To be done



     Alpha used in Ewald sum =   2.8000
     PHONON       :     13h52m CPU     14h27m WALL



     Representation #   1 mode #   1

     Self-consistent Calculation

      iter #   1 total cpu time : 52091.6 secs   av.it.:   7.1
      thresh= 1.000E-02 alpha_mix =  0.700 |ddv_scf|^2 =  3.756E-07

      iter #   2 total cpu time : 52147.8 secs   av.it.:  18.6
      thresh= 6.129E-05 alpha_mix =  0.700 |ddv_scf|^2 =  1.217E-06

      iter #   3 total cpu time : 52200.1 secs   av.it.:  17.2
      thresh= 1.103E-04 alpha_mix =  0.700 |ddv_scf|^2 =  6.674E-09

      iter #   4 total cpu time : 52252.0 secs   av.it.:  17.1
      thresh= 8.169E-06 alpha_mix =  0.700 |ddv_scf|^2 =  4.354E-11

      iter #   5 total cpu time : 52306.6 secs   av.it.:  18.2
      thresh= 6.599E-07 alpha_mix =  0.700 |ddv_scf|^2 =  7.686E-13

      iter #   6 total cpu time : 52362.0 secs   av.it.:  18.4
      thresh= 8.767E-08 alpha_mix =  0.700 |ddv_scf|^2 =  1.729E-15

     End of self-consistent calculation

     Convergence has been achieved 


     Representation #   2 mode #   2

     Self-consistent Calculation

      iter #   1 total cpu time : 52386.7 secs   av.it.:   5.2
      thresh= 1.000E-02 alpha_mix =  0.700 |ddv_scf|^2 =  2.183E-09

      iter #   2 total cpu time : 52440.5 secs   av.it.:  17.9
      thresh= 4.672E-06 alpha_mix =  0.700 |ddv_scf|^2 =  1.294E-10

      iter #   3 total cpu time : 52494.8 secs   av.it.:  18.1
      thresh= 1.137E-06 alpha_mix =  0.700 |ddv_scf|^2 =  8.113E-13

      iter #   4 total cpu time : 52546.1 secs   av.it.:  17.0
      thresh= 9.007E-08 alpha_mix =  0.700 |ddv_scf|^2 =  4.528E-15

     End of self-consistent calculation

     Convergence has been achieved 


     Representation #   3 mode #   3

     Self-consistent Calculation

      iter #   1 total cpu time : 52570.7 secs   av.it.:   5.2
      thresh= 1.000E-02 alpha_mix =  0.700 |ddv_scf|^2 =  4.046E-09

      iter #   2 total cpu time : 52622.7 secs   av.it.:  17.4
      thresh= 6.361E-06 alpha_mix =  0.700 |ddv_scf|^2 =  9.120E-11

      iter #   3 total cpu time : 52675.4 secs   av.it.:  17.7
      thresh= 9.550E-07 alpha_mix =  0.700 |ddv_scf|^2 =  2.343E-12

      iter #   4 total cpu time : 52727.3 secs   av.it.:  17.4
      thresh= 1.531E-07 alpha_mix =  0.700 |ddv_scf|^2 =  8.134E-15

     End of self-consistent calculation

     Convergence has been achieved 


     Representation #   4 mode #   4

     Self-consistent Calculation

      iter #   1 total cpu time : 52756.0 secs   av.it.:   6.8
      thresh= 1.000E-02 alpha_mix =  0.700 |ddv_scf|^2 =  3.847E-07

      iter #   2 total cpu time : 52811.6 secs   av.it.:  18.5
      thresh= 6.203E-05 alpha_mix =  0.700 |ddv_scf|^2 =  6.277E-07

      iter #   3 total cpu time : 52865.0 secs   av.it.:  17.8
      thresh= 7.923E-05 alpha_mix =  0.700 |ddv_scf|^2 =  4.868E-10

      iter #   4 total cpu time : 52921.1 secs   av.it.:  18.8
      thresh= 2.206E-06 alpha_mix =  0.700 |ddv_scf|^2 =  1.246E-11

      iter #   5 total cpu time : 52976.4 secs   av.it.:  18.5
      thresh= 3.530E-07 alpha_mix =  0.700 |ddv_scf|^2 =  1.297E-13

      iter #   6 total cpu time : 53031.4 secs   av.it.:  18.4
      thresh= 3.601E-08 alpha_mix =  0.700 |ddv_scf|^2 =  2.279E-15

     End of self-consistent calculation

     Convergence has been achieved 


     Representation #   5 modes #   5   6

     Self-consistent Calculation

      iter #   1 total cpu time : 53078.5 secs   av.it.:   5.5
      thresh= 1.000E-02 alpha_mix =  0.700 |ddv_scf|^2 =  2.739E-09

      iter #   2 total cpu time : 53193.5 secs   av.it.:  19.4
      thresh= 5.234E-06 alpha_mix =  0.700 |ddv_scf|^2 =  1.887E-11

      iter #   3 total cpu time : 53311.2 secs   av.it.:  19.9
      thresh= 4.344E-07 alpha_mix =  0.700 |ddv_scf|^2 =  1.468E-12

      iter #   4 total cpu time : 53428.5 secs   av.it.:  19.7
      thresh= 1.212E-07 alpha_mix =  0.700 |ddv_scf|^2 =  1.113E-14

      iter #   5 total cpu time : 53548.4 secs   av.it.:  20.2
      thresh= 1.055E-08 alpha_mix =  0.700 |ddv_scf|^2 =  6.728E-17

     End of self-consistent calculation

     Convergence has been achieved 


     Representation #   6 mode #   7

     Self-consistent Calculation

      iter #   1 total cpu time : 53587.7 secs   av.it.:   9.4
      thresh= 1.000E-02 alpha_mix =  0.700 |ddv_scf|^2 =  1.512E-06

      iter #   2 total cpu time : 53640.8 secs   av.it.:  17.6
      thresh= 1.230E-04 alpha_mix =  0.700 |ddv_scf|^2 =  9.631E-08

      iter #   3 total cpu time : 53694.2 secs   av.it.:  17.7
      thresh= 3.103E-05 alpha_mix =  0.700 |ddv_scf|^2 =  1.279E-10

      iter #   4 total cpu time : 53749.3 secs   av.it.:  18.3
      thresh= 1.131E-06 alpha_mix =  0.700 |ddv_scf|^2 =  1.711E-12

      iter #   5 total cpu time : 53803.1 secs   av.it.:  17.8
      thresh= 1.308E-07 alpha_mix =  0.700 |ddv_scf|^2 =  1.399E-14

      iter #   6 total cpu time : 53857.6 secs   av.it.:  17.8
      thresh= 1.183E-08 alpha_mix =  0.700 |ddv_scf|^2 =  5.129E-16

     End of self-consistent calculation

     Convergence has been achieved 


     Representation #   7 mode #   8

     Self-consistent Calculation

      iter #   1 total cpu time : 53882.8 secs   av.it.:   5.4
      thresh= 1.000E-02 alpha_mix =  0.700 |ddv_scf|^2 =  2.389E-08

      iter #   2 total cpu time : 53934.8 secs   av.it.:  17.1
      thresh= 1.545E-05 alpha_mix =  0.700 |ddv_scf|^2 =  1.409E-09

      iter #   3 total cpu time : 53988.3 secs   av.it.:  17.7
      thresh= 3.753E-06 alpha_mix =  0.700 |ddv_scf|^2 =  1.272E-11

      iter #   4 total cpu time : 54041.1 secs   av.it.:  17.4
      thresh= 3.566E-07 alpha_mix =  0.700 |ddv_scf|^2 =  6.343E-14

      iter #   5 total cpu time : 54093.5 secs   av.it.:  17.3
      thresh= 2.519E-08 alpha_mix =  0.700 |ddv_scf|^2 =  4.564E-16

     End of self-consistent calculation

     Convergence has been achieved 


     Representation #   8 mode #   9

     Self-consistent Calculation

      iter #   1 total cpu time : 54131.1 secs   av.it.:  10.0
      thresh= 1.000E-02 alpha_mix =  0.700 |ddv_scf|^2 =  2.242E-06

      iter #   2 total cpu time : 54185.4 secs   av.it.:  18.0
      thresh= 1.497E-04 alpha_mix =  0.700 |ddv_scf|^2 =  2.247E-07

      iter #   3 total cpu time : 54240.7 secs   av.it.:  18.2
      thresh= 4.741E-05 alpha_mix =  0.700 |ddv_scf|^2 =  8.904E-10

      iter #   4 total cpu time : 54297.7 secs   av.it.:  18.4
      thresh= 2.984E-06 alpha_mix =  0.700 |ddv_scf|^2 =  6.026E-12

      iter #   5 total cpu time : 54354.5 secs   av.it.:  18.2
      thresh= 2.455E-07 alpha_mix =  0.700 |ddv_scf|^2 =  3.885E-14

      iter #   6 total cpu time : 54409.9 secs   av.it.:  17.8
      thresh= 1.971E-08 alpha_mix =  0.700 |ddv_scf|^2 =  1.317E-15

     End of self-consistent calculation

     Convergence has been achieved 


     Representation #   9 modes #  10  11

     Self-consistent Calculation

 %%%%%%%%%%%%%%%%%%%%%%%%%%%%%%%%%%%%%%%%%%%%%%%%%%%%%%%%%%%%%%%%%%%%%%%%%%%%%%
     Error in routine davcio (99):
     error writing file "./out/_ph0/caauh3.q_6/caauh3.mixd1"
 %%%%%%%%%%%%%%%%%%%%%%%%%%%%%%%%%%%%%%%%%%%%%%%%%%%%%%%%%%%%%%%%%%%%%%%%%%%%%%

     stopping ...
--------------------------------------------------------------------------
MPI_ABORT was invoked on rank 2 in communicator MPI_COMM_WORLD
with errorcode 1.

NOTE: invoking MPI_ABORT causes Open MPI to kill all MPI processes.
You may or may not see output from other processes, depending on
exactly when Open MPI kills them.
--------------------------------------------------------------------------
[d75f227a91ba:02862] 7 more processes have sent help message help-mpi-api.txt / mpi-abort
[d75f227a91ba:02862] Set MCA parameter "orte_base_help_aggregate" to 0 to see all help / error messages
