
     Program PWSCF v.6.7MaX starts on 28May2026 at 19:32:20 

     This program is part of the open-source Quantum ESPRESSO suite
     for quantum simulation of materials; please cite
         "P. Giannozzi et al., J. Phys.:Condens. Matter 21 395502 (2009);
         "P. Giannozzi et al., J. Phys.:Condens. Matter 29 465901 (2017);
          URL http://www.quantum-espresso.org", 
     in publications or presentations arising from this work. More details at
     http://www.quantum-espresso.org/quote

     Parallel version (MPI), running on     8 processors

     MPI processes distributed on     1 nodes
     R & G space division:  proc/nbgrp/npool/nimage =       8
     Reading input from scf.in

     Current dimensions of program PWSCF are:
     Max number of different atomic species (ntypx) = 10
     Max number of k-points (npk) =  40000
     Max angular momentum in pseudopotentials (lmaxx) =  3
     file Ca.pbe-spn-rrkjus_psl.1.0.0.UPF: wavefunction(s)  3S renormalized

     Subspace diagonalization in iterative solution of the eigenvalue problem:
     one sub-group per band group will be used
     scalapack distributed-memory algorithm (size of sub-group:  2*  2 procs)


     Parallelization info
     --------------------
     sticks:   dense  smooth     PW     G-vecs:    dense   smooth      PW
     Min         298     150     43                10923     3878     617
     Max         299     151     44                10924     3881     620
     Sum        2385    1201    349                87391    31031    4945



     bravais-lattice index     =            1
     lattice parameter (alat)  =       6.8361  a.u.
     unit-cell volume          =     319.4664 (a.u.)^3
     number of atoms/cell      =            5
     number of atomic types    =            3
     number of electrons       =        24.00
     number of Kohn-Sham states=           16
     kinetic-energy cutoff     =      80.0000  Ry
     charge density cutoff     =     640.0000  Ry
     scf convergence threshold =      1.0E-12
     mixing beta               =       0.4000
     number of iterations used =            8  plain     mixing
     Exchange-correlation= PBE
                           (   1   4   3   4   0   0   0)

     celldm(1)=   6.836100  celldm(2)=   0.000000  celldm(3)=   0.000000
     celldm(4)=   0.000000  celldm(5)=   0.000000  celldm(6)=   0.000000

     crystal axes: (cart. coord. in units of alat)
               a(1) = (   1.000000   0.000000   0.000000 )  
               a(2) = (   0.000000   1.000000   0.000000 )  
               a(3) = (   0.000000   0.000000   1.000000 )  

     reciprocal axes: (cart. coord. in units 2 pi/alat)
               b(1) = (  1.000000  0.000000  0.000000 )  
               b(2) = (  0.000000  1.000000  0.000000 )  
               b(3) = (  0.000000  0.000000  1.000000 )  


     PseudoPot. # 1 for Ca read from file:
     ./pseudo/Ca.pbe-spn-rrkjus_psl.1.0.0.UPF
     MD5 check sum: be476cbee6758b394af5fd17922f3fca
     Pseudo is Ultrasoft + core correction, Zval = 10.0
     Generated using &quot;atomic&quot; code by A. Dal Corso  v.6.2.2
     Using radial grid of 1169 points,  6 beta functions with: 
                l(1) =   0
                l(2) =   0
                l(3) =   1
                l(4) =   1
                l(5) =   2
                l(6) =   2
     Q(r) pseudized with 0 coefficients 


     PseudoPot. # 2 for Au read from file:
     ./pseudo/Au.pbe-n-rrkjus_psl.1.0.0.UPF
     MD5 check sum: d7e77ba19504afed2c9b41c931dde4f0
     Pseudo is Ultrasoft + core correction, Zval = 11.0
     Generated using &quot;atomic&quot; code by A. Dal Corso  v.6.3
     Using radial grid of 1279 points,  6 beta functions with: 
                l(1) =   0
                l(2) =   0
                l(3) =   1
                l(4) =   1
                l(5) =   2
                l(6) =   2
     Q(r) pseudized with 0 coefficients 


     PseudoPot. # 3 for H  read from file:
     ./pseudo/H.pbe-rrkjus_psl.1.0.0.UPF
     MD5 check sum: 3f4114867bd07edc7f1424d066fc1888
     Pseudo is Ultrasoft, Zval =  1.0
     Generated using &quot;atomic&quot; code by A. Dal Corso  v.6.3MaX
     Using radial grid of  929 points,  2 beta functions with: 
                l(1) =   0
                l(2) =   0
     Q(r) pseudized with 0 coefficients 


     atomic species   valence    mass     pseudopotential
        Ca            10.00    40.07800     Ca( 1.00)
        Au            11.00   196.96700     Au( 1.00)
        H              1.00     1.00800     H ( 1.00)

     48 Sym. Ops., with inversion, found



   Cartesian axes

     site n.     atom                  positions (alat units)
         1           Ca  tau(   1) = (   0.5000000   0.5000000   0.5000000  )
         2           Au  tau(   2) = (  -0.0000000  -0.0000000  -0.0000000  )
         3           H   tau(   3) = (   0.5000000   0.0000000   0.0000000  )
         4           H   tau(   4) = (   0.0000000   0.5000000   0.0000000  )
         5           H   tau(   5) = (   0.0000000   0.0000000   0.5000000  )

     number of k points=   165  Methfessel-Paxton smearing, width (Ry)=  0.0200

     Number of k-points >= 100: set verbosity='high' to print them.

     Dense  grid:    87391 G-vectors     FFT dimensions: (  60,  60,  60)

     Smooth grid:    31031 G-vectors     FFT dimensions: (  40,  40,  40)

     Estimated max dynamical RAM per process >      66.57 MB

     Estimated total dynamical RAM >     532.54 MB

     Initial potential from superposition of free atoms

     starting charge   23.99501, renormalised to   24.00000
     Starting wfcs are   20 randomized atomic wfcs

     total cpu time spent up to now is        2.0 secs

     Self-consistent Calculation

     iteration #  1     ecut=    80.00 Ry     beta= 0.40
     Davidson diagonalization with overlap
     ethr =  1.00E-02,  avg # of iterations =  8.9

     total cpu time spent up to now is        8.7 secs

     total energy              =    -163.88676716 Ry
     estimated scf accuracy    <       0.33116228 Ry

     iteration #  2     ecut=    80.00 Ry     beta= 0.40
     Davidson diagonalization with overlap
     ethr =  1.38E-03,  avg # of iterations =  3.8

     total cpu time spent up to now is       13.5 secs

     total energy              =    -163.98473337 Ry
     estimated scf accuracy    <       0.02223156 Ry

     iteration #  3     ecut=    80.00 Ry     beta= 0.40
     Davidson diagonalization with overlap
     c_bands:  1 eigenvalues not converged
     c_bands:  2 eigenvalues not converged
     c_bands:  1 eigenvalues not converged
     c_bands:  2 eigenvalues not converged
     c_bands:  2 eigenvalues not converged
     c_bands:  2 eigenvalues not converged
     c_bands:  3 eigenvalues not converged
     c_bands:  2 eigenvalues not converged
     c_bands:  1 eigenvalues not converged
     c_bands:  2 eigenvalues not converged
     c_bands:  1 eigenvalues not converged
     c_bands:  1 eigenvalues not converged
     c_bands:  2 eigenvalues not converged
     c_bands:  1 eigenvalues not converged
     c_bands:  1 eigenvalues not converged
     c_bands:  2 eigenvalues not converged
     c_bands:  2 eigenvalues not converged
     c_bands:  1 eigenvalues not converged
     c_bands:  1 eigenvalues not converged
     c_bands:  2 eigenvalues not converged
     c_bands:  2 eigenvalues not converged
     c_bands:  2 eigenvalues not converged
     c_bands:  2 eigenvalues not converged
     c_bands:  2 eigenvalues not converged
     c_bands:  1 eigenvalues not converged
     c_bands:  1 eigenvalues not converged
     c_bands:  2 eigenvalues not converged
     c_bands:  1 eigenvalues not converged
     c_bands:  1 eigenvalues not converged
     c_bands:  1 eigenvalues not converged
     c_bands:  1 eigenvalues not converged
     c_bands:  2 eigenvalues not converged
     c_bands:  1 eigenvalues not converged
     c_bands:  1 eigenvalues not converged
     c_bands:  1 eigenvalues not converged
     c_bands:  1 eigenvalues not converged
     ethr =  9.26E-05,  avg # of iterations = 15.6

     total cpu time spent up to now is       27.7 secs

     total energy              =    -163.99979231 Ry
     estimated scf accuracy    <       0.00366905 Ry

     iteration #  4     ecut=    80.00 Ry     beta= 0.40
     Davidson diagonalization with overlap
     c_bands:  1 eigenvalues not converged
     c_bands:  1 eigenvalues not converged
     c_bands:  1 eigenvalues not converged
     c_bands:  1 eigenvalues not converged
     c_bands:  1 eigenvalues not converged
     c_bands:  1 eigenvalues not converged
     c_bands:  1 eigenvalues not converged
     c_bands:  2 eigenvalues not converged
     c_bands:  2 eigenvalues not converged
     c_bands:  1 eigenvalues not converged
     c_bands:  2 eigenvalues not converged
     c_bands:  3 eigenvalues not converged
     c_bands:  1 eigenvalues not converged
     c_bands:  1 eigenvalues not converged
     c_bands:  3 eigenvalues not converged
     c_bands:  1 eigenvalues not converged
     c_bands:  1 eigenvalues not converged
     c_bands:  1 eigenvalues not converged
     c_bands:  1 eigenvalues not converged
     c_bands:  1 eigenvalues not converged
     c_bands:  1 eigenvalues not converged
     c_bands:  1 eigenvalues not converged
     c_bands:  2 eigenvalues not converged
     c_bands:  1 eigenvalues not converged
     c_bands:  1 eigenvalues not converged
     c_bands:  1 eigenvalues not converged
     c_bands:  1 eigenvalues not converged
     c_bands:  2 eigenvalues not converged
     c_bands:  2 eigenvalues not converged
     c_bands:  1 eigenvalues not converged
     c_bands:  1 eigenvalues not converged
     c_bands:  1 eigenvalues not converged
     c_bands:  1 eigenvalues not converged
     c_bands:  1 eigenvalues not converged
     c_bands:  1 eigenvalues not converged
     c_bands:  1 eigenvalues not converged
     c_bands:  1 eigenvalues not converged
     c_bands:  1 eigenvalues not converged
     c_bands:  1 eigenvalues not converged
     c_bands:  1 eigenvalues not converged
     c_bands:  1 eigenvalues not converged
     c_bands:  1 eigenvalues not converged
     c_bands:  1 eigenvalues not converged
     ethr =  1.53E-05,  avg # of iterations = 12.2

     total cpu time spent up to now is       38.7 secs

     total energy              =    -164.00066713 Ry
     estimated scf accuracy    <       0.00086434 Ry

     iteration #  5     ecut=    80.00 Ry     beta= 0.40
     Davidson diagonalization with overlap
     c_bands:  1 eigenvalues not converged
     c_bands:  1 eigenvalues not converged
     c_bands:  1 eigenvalues not converged
     c_bands:  1 eigenvalues not converged
     c_bands:  1 eigenvalues not converged
     c_bands:  1 eigenvalues not converged
     c_bands:  1 eigenvalues not converged
     c_bands:  1 eigenvalues not converged
     c_bands:  1 eigenvalues not converged
     c_bands:  1 eigenvalues not converged
     c_bands:  2 eigenvalues not converged
     c_bands:  1 eigenvalues not converged
     c_bands:  1 eigenvalues not converged
     c_bands:  1 eigenvalues not converged
     c_bands:  1 eigenvalues not converged
     c_bands:  1 eigenvalues not converged
     c_bands:  1 eigenvalues not converged
     c_bands:  1 eigenvalues not converged
     c_bands:  2 eigenvalues not converged
     c_bands:  1 eigenvalues not converged
     c_bands:  1 eigenvalues not converged
     c_bands:  1 eigenvalues not converged
     c_bands:  1 eigenvalues not converged
     c_bands:  1 eigenvalues not converged
     c_bands:  1 eigenvalues not converged
     c_bands:  1 eigenvalues not converged
     c_bands:  1 eigenvalues not converged
     c_bands:  1 eigenvalues not converged
     c_bands:  1 eigenvalues not converged
     c_bands:  1 eigenvalues not converged
     c_bands:  1 eigenvalues not converged
     c_bands:  1 eigenvalues not converged
     c_bands:  1 eigenvalues not converged
     c_bands:  1 eigenvalues not converged
     c_bands:  1 eigenvalues not converged
     c_bands:  1 eigenvalues not converged
     c_bands:  1 eigenvalues not converged
     c_bands:  1 eigenvalues not converged
     c_bands:  1 eigenvalues not converged
     c_bands:  1 eigenvalues not converged
     ethr =  3.60E-06,  avg # of iterations = 12.0

     total cpu time spent up to now is       49.8 secs

     total energy              =    -164.00086930 Ry
     estimated scf accuracy    <       0.00006863 Ry

     iteration #  6     ecut=    80.00 Ry     beta= 0.40
     Davidson diagonalization with overlap
     c_bands:  1 eigenvalues not converged
     c_bands:  1 eigenvalues not converged
     c_bands:  1 eigenvalues not converged
     c_bands:  1 eigenvalues not converged
     c_bands:  2 eigenvalues not converged
     c_bands:  1 eigenvalues not converged
     c_bands:  1 eigenvalues not converged
     c_bands:  1 eigenvalues not converged
     c_bands:  1 eigenvalues not converged
     c_bands:  1 eigenvalues not converged
     c_bands:  1 eigenvalues not converged
     c_bands:  1 eigenvalues not converged
     c_bands:  1 eigenvalues not converged
     c_bands:  1 eigenvalues not converged
     c_bands:  1 eigenvalues not converged
     c_bands:  1 eigenvalues not converged
     c_bands:  1 eigenvalues not converged
     c_bands:  1 eigenvalues not converged
     c_bands:  1 eigenvalues not converged
     ethr =  2.86E-07,  avg # of iterations =  9.0

     total cpu time spent up to now is       60.6 secs

     total energy              =    -164.00091722 Ry
     estimated scf accuracy    <       0.00000934 Ry

     iteration #  7     ecut=    80.00 Ry     beta= 0.40
     Davidson diagonalization with overlap
     c_bands:  1 eigenvalues not converged
     c_bands:  1 eigenvalues not converged
     c_bands:  1 eigenvalues not converged
     c_bands:  1 eigenvalues not converged
     c_bands:  2 eigenvalues not converged
     c_bands:  2 eigenvalues not converged
     c_bands:  1 eigenvalues not converged
     c_bands:  1 eigenvalues not converged
     c_bands:  1 eigenvalues not converged
     c_bands:  1 eigenvalues not converged
     c_bands:  1 eigenvalues not converged
     c_bands:  1 eigenvalues not converged
     c_bands:  1 eigenvalues not converged
     ethr =  3.89E-08,  avg # of iterations =  7.9

     total cpu time spent up to now is       71.2 secs

     total energy              =    -164.00092324 Ry
     estimated scf accuracy    <       0.00000170 Ry

     iteration #  8     ecut=    80.00 Ry     beta= 0.40
     Davidson diagonalization with overlap
     c_bands:  1 eigenvalues not converged
     c_bands:  2 eigenvalues not converged
     c_bands:  2 eigenvalues not converged
     c_bands:  1 eigenvalues not converged
     c_bands:  1 eigenvalues not converged
     ethr =  7.07E-09,  avg # of iterations =  6.4

     total cpu time spent up to now is       80.9 secs

     total energy              =    -164.00092420 Ry
     estimated scf accuracy    <       0.00000064 Ry

     iteration #  9     ecut=    80.00 Ry     beta= 0.40
     Davidson diagonalization with overlap
     c_bands:  1 eigenvalues not converged
     c_bands:  2 eigenvalues not converged
     ethr =  2.67E-09,  avg # of iterations =  4.8

     total cpu time spent up to now is       89.4 secs

     total energy              =    -164.00092446 Ry
     estimated scf accuracy    <       0.00000009 Ry

     iteration # 10     ecut=    80.00 Ry     beta= 0.40
     Davidson diagonalization with overlap
     c_bands:  1 eigenvalues not converged
     c_bands:  1 eigenvalues not converged
     c_bands:  1 eigenvalues not converged
     ethr =  3.68E-10,  avg # of iterations =  6.4

     total cpu time spent up to now is       99.3 secs

     total energy              =    -164.00092452 Ry
     estimated scf accuracy    <       0.00000003 Ry

     iteration # 11     ecut=    80.00 Ry     beta= 0.40
     Davidson diagonalization with overlap
     c_bands:  1 eigenvalues not converged
     ethr =  1.18E-10,  avg # of iterations =  3.5

     total cpu time spent up to now is      106.5 secs

     total energy              =    -164.00092452 Ry
     estimated scf accuracy    <          3.1E-09 Ry

     iteration # 12     ecut=    80.00 Ry     beta= 0.40
     Davidson diagonalization with overlap
     c_bands:  1 eigenvalues not converged
     c_bands:  2 eigenvalues not converged
     c_bands:  1 eigenvalues not converged
     ethr =  1.27E-11,  avg # of iterations =  7.9

     total cpu time spent up to now is      119.2 secs

     total energy              =    -164.00092453 Ry
     estimated scf accuracy    <          4.6E-10 Ry

     iteration # 13     ecut=    80.00 Ry     beta= 0.40
     Davidson diagonalization with overlap
     c_bands:  1 eigenvalues not converged
     c_bands:  1 eigenvalues not converged
     c_bands:  1 eigenvalues not converged
     c_bands:  2 eigenvalues not converged
     ethr =  1.90E-12,  avg # of iterations =  6.7

     total cpu time spent up to now is      129.8 secs

     total energy              =    -164.00092453 Ry
     estimated scf accuracy    <          7.0E-11 Ry

     iteration # 14     ecut=    80.00 Ry     beta= 0.40
     Davidson diagonalization with overlap
     c_bands:  1 eigenvalues not converged
     c_bands:  1 eigenvalues not converged
     ethr =  2.91E-13,  avg # of iterations =  6.3

     total cpu time spent up to now is      139.9 secs

     total energy              =    -164.00092453 Ry
     estimated scf accuracy    <          1.9E-11 Ry

     iteration # 15     ecut=    80.00 Ry     beta= 0.40
     Davidson diagonalization with overlap
     c_bands:  2 eigenvalues not converged
     ethr =  1.00E-13,  avg # of iterations =  2.9

     total cpu time spent up to now is      146.3 secs

     total energy              =    -164.00092453 Ry
     estimated scf accuracy    <          9.0E-12 Ry

     iteration # 16     ecut=    80.00 Ry     beta= 0.40
     Davidson diagonalization with overlap
     ethr =  1.00E-13,  avg # of iterations =  1.8

     total cpu time spent up to now is      151.9 secs

     End of self-consistent calculation

     Number of k-points >= 100: set verbosity='high' to print the bands.

     the Fermi energy is    13.2533 ev

!    total energy              =    -164.00092453 Ry
     estimated scf accuracy    <          2.0E-13 Ry
     smearing contrib. (-TS)   =       0.00029552 Ry
     internal energy E=F+TS    =    -164.00122005 Ry

     The total energy is F=E-TS. E is the sum of the following terms:
     one-electron contribution =     -16.46917425 Ry
     hartree contribution      =      24.42443989 Ry
     xc contribution           =     -46.62793548 Ry
     ewald contribution        =    -125.32855020 Ry

     convergence has been achieved in  16 iterations

     Forces acting on atoms (cartesian axes, Ry/au):

     atom    1 type  1   force =     0.00000000    0.00000000    0.00000000
     atom    2 type  2   force =     0.00000000    0.00000000    0.00000000
     atom    3 type  3   force =     0.00000000    0.00000000    0.00000000
     atom    4 type  3   force =     0.00000000    0.00000000    0.00000000
     atom    5 type  3   force =     0.00000000    0.00000000    0.00000000

     Total force =     0.000000     Total SCF correction =     0.000000


     Computing stress (Cartesian axis) and pressure

          total   stress  (Ry/bohr**3)                   (kbar)     P=      230.77
   0.00156876   0.00000000   0.00000000          230.77        0.00        0.00
   0.00000000   0.00156876   0.00000000            0.00      230.77        0.00
   0.00000000   0.00000000   0.00156876            0.00        0.00      230.77


     Writing output data file ./out/caauh3.save/

     init_run     :      1.68s CPU      1.78s WALL (       1 calls)
     electrons    :    145.83s CPU    149.86s WALL (       1 calls)
     forces       :      1.11s CPU      1.12s WALL (       1 calls)
     stress       :      2.13s CPU      2.14s WALL (       1 calls)

     Called by init_run:
     wfcinit      :      1.34s CPU      1.38s WALL (       1 calls)
     potinit      :      0.04s CPU      0.04s WALL (       1 calls)
     hinit0       :      0.18s CPU      0.19s WALL (       1 calls)

     Called by electrons:
     c_bands      :    133.20s CPU    136.80s WALL (      16 calls)
     sum_band     :     11.10s CPU     11.48s WALL (      16 calls)
     v_of_rho     :      0.29s CPU      0.32s WALL (      17 calls)
     newd         :      1.22s CPU      1.28s WALL (      17 calls)
     mix_rho      :      0.04s CPU      0.04s WALL (      16 calls)

     Called by c_bands:
     init_us_2    :      1.16s CPU      1.18s WALL (    5775 calls)
     cegterg      :    129.88s CPU    133.43s WALL (    2640 calls)

     Called by *egterg:
     cdiaghg      :     15.37s CPU     15.86s WALL (   21787 calls)
     h_psi        :     61.79s CPU     64.16s WALL (   21952 calls)
     s_psi        :      6.50s CPU      6.59s WALL (   21952 calls)
     g_psi        :      0.52s CPU      0.52s WALL (   19147 calls)

     Called by h_psi:
     h_psi:calbec :     10.41s CPU     10.88s WALL (   21952 calls)
     vloc_psi     :     44.60s CPU     46.39s WALL (   21952 calls)
     add_vuspsi   :      6.50s CPU      6.61s WALL (   21952 calls)

     General routines
     calbec       :     14.64s CPU     15.23s WALL (   25417 calls)
     fft          :      0.24s CPU      0.28s WALL (     244 calls)
     ffts         :      0.01s CPU      0.01s WALL (      33 calls)
     fftw         :     46.85s CPU     48.71s WALL (  350958 calls)
     interpolate  :      0.02s CPU      0.02s WALL (      17 calls)

     Parallel routines
     fft_scatt_xy :      3.15s CPU      3.27s WALL (  351235 calls)
     fft_scatt_yz :     26.46s CPU     27.54s WALL (  351235 calls)

     PWSCF        :   2m31.22s CPU   2m35.68s WALL


   This run was terminated on:  19:34:55  28May2026            

=------------------------------------------------------------------------------=
   JOB DONE.
=------------------------------------------------------------------------------=
